963
 i =      114, E =     -2416.7871761034
 Si        14.5763342686       14.7126358931       19.8978529222
 Si        14.6376959536       14.7056001785       25.3675828838
 Si        14.6372295205       20.1725444467       14.4550914556
 Si        14.7351473695       20.1824515078       19.9558276256
 Si        14.6186571073       20.1657251933       25.3945451757
 Si        14.6047465959       25.6285754844       14.4963078444
 Si        14.6305133540       25.6416037665       19.9177631808
 Si        20.0746577945       14.7172845819       14.4523721692
 Si        20.0869941427       14.8449415613       19.9241684265
 Si        20.0686082983       14.7414591840       25.3295360885
 Si        20.0974792310       20.2139464998       14.5722606907
 Si        20.0788334023       20.1939454224       19.9248573031
 Si        20.1041039558       20.1674639316       25.2916806655
 Si        20.0492791666       25.6670856026       14.4580961102
 Si        20.0727817039       25.5461177005       19.9620754230
 Si        20.0633385938       25.6645367512       25.4070283355
 Si        25.5030324561       14.7222243476       14.4978475653
 Si        25.5148382206       14.7788550719       19.8939470278
 Si        25.5453997565       20.1653633086       14.4280579424
 Si        25.4501711045       20.1894649209       19.9263017807
 Si        25.5369470041       20.2123260570       25.3944809230
 Si        25.5088405204       25.6423837222       19.9406815548
 Si        25.6122703582       25.6870589040       25.4467451394
 Si        14.6515231255       11.9761905557       22.6696890621
 Si        14.5974744714       17.4687289597       17.2275610844
 Si        14.6614756730       17.4369447816       22.6668274578
 Si        14.6810435545       17.4716674794       28.0857191979
 Si        14.6417425580       22.9246334507       11.7081412800
 Si        14.6542474922       22.9219552081       17.1798668689
 Si        14.5964852767       22.9146511141       22.6758332478
 Si        14.6519214227       28.3532504882       17.1386616864
 Si        20.1591181370       12.0289735702       17.2890530352
 Si        20.0216759252       12.0472130630       22.5595756042
 Si        20.2109656714       17.5601156524       11.7754182160
 Si        20.0813239237       17.4772678208       17.1896463305
 Si        20.0922255249       17.4663778791       22.6527756760
 Si        19.9968780853       17.5151754300       28.0952088451
 Si        20.0117249412       22.8417804214       11.7638257095
 Si        20.0896463340       22.9231902167       17.1886614389
 Si        20.0908473549       22.9180750496       22.6642071472
 Si        20.1675878737       22.7885394318       28.0973523383
 Si        19.9784474758       28.3525434131       17.2924481640
 Si        20.1255072613       28.3549477566       22.5685602463
 Si        25.4873971727       11.9828961025       17.1718425269
 Si        25.4833347178       17.4525735899       11.7736187963
 Si        25.5178187725       17.4359263531       17.1647830183
 Si        25.5811082666       17.4493191942       22.6273831139
 Si        25.5684152130       22.9068141697       17.2049405318
 Si        25.5219321642       22.9579282841       22.6873100256
 Si        25.5556279574       22.9186799830       28.1417636519
 Si        25.4383870326       28.3492483142       22.6626734277
 Si        11.9212833295       17.5459607205       20.0289592847
 Si        11.9374400574       17.3590984032       25.3964831959
 Si        11.8952757591       22.9356482733       14.4976890817
 Si        11.9477093468       22.7837095946       19.8549782512
 Si        17.4655523410       12.0647812054       20.0031184151
 Si        17.3399836824       11.9643285912       25.3512115107
 Si        17.3739654270       17.5057992204       14.4306282647
 Si        17.3545343487       17.4434542487       19.9212407986
 Si        17.3307984536       17.4166043120       25.3679808049
 Si        17.3127392670       22.9536635966       14.4744741434
 Si        17.3573609457       22.9168599873       19.9495018750
 Si        17.4017952317       22.8751452239       25.3853590259
 Si        17.3589174346       28.3315601372       14.5248207889
 Si        17.4257243100       28.3141802227       19.8582963293
 Si        22.7812743530       12.0252013510       14.5682275347
 Si        22.7284395647       12.0372047392       19.8185080311
 Si        22.8254027783       17.4358375265       14.5064410659
 Si        22.8059537187       17.4829231358       19.9286723563
 Si        22.8291998482       17.4539645456       25.4301771591
 Si        22.8359704152       22.9238092501       14.4204911681
 Si        22.8120578296       22.9033511611       19.9341911385
 Si        22.8488695010       22.9616530279       25.3909202253
 Si        22.7220391512       28.3541927834       20.0193584965
 Si        22.8003227278       28.3301188343       25.3324292211
 Si        28.2924727713       17.3883092574       14.5046024061
 Si        28.2581034303       17.5262737459       19.8535767372
 Si        28.2525905371       22.8436747987       19.9967060361
 Si        28.2891708650       22.9587679529       25.3575510153
 Si        11.9155951930       14.7252956840       22.6937210718
 Si        11.9343071562       20.2482459727       17.3278861400
 Si        11.8860422856       20.0880755799       22.5894175428
 Si        11.8575921120       25.6042057047       17.1660189109
 Si        17.4004280888       14.7121586607       17.1826622558
 Si        17.3107683093       14.7540451028       22.6656343306
 Si        17.3280179444       14.7305319521       28.1237096968
 Si        17.4655794756       20.2650115124       11.7833935553
 Si        17.3505627492       20.1962888461       17.2044436135
 Si        17.3596830289       20.1754063071       22.6657569247
 Si        17.4699672379       20.0834065210       28.0942563913
 Si        17.2841434911       25.6271249988       11.7215095093
 Si        17.3388432220       25.5928100908       17.1923230923
 Si        17.3190955337       25.6808978417       22.6904957968
 Si        22.8607124691       14.7707053978       11.6970047693
 Si        22.8036723408       14.7766222698       17.1838699625
 Si        22.7954428382       14.6930885849       22.6427098957
 Si        22.7581377586       20.1158093724       11.7774626731
 Si        22.8252985646       20.1952528321       17.1887899828
 Si        22.8258649784       20.1884119102       22.6716031034
 Si        22.7491928882       20.2231283711       28.0753708072
 Si        22.7799232148       25.6715545489       17.2595960857
 Si        22.8249147493       25.6129053754       22.7068891706
 Si        22.8840531055       25.5911553251       28.1623461646
 Si        28.2797210615       14.7463217013       17.1819291877
 Si        28.2208165402       20.0682105707       17.2659964107
 Si        28.2319630433       20.2827858740       22.5493004871
 Si        28.2879698545       25.6294690683       22.6752096643
 Si        13.1724895900       16.1244452850       18.5778799535
 Si        13.3240911821       16.0513918875       24.0279300291
 Si        13.2871426572       21.5629693712       13.1261502154
 Si        13.4255032430       21.5259042528       18.5772952263
 Si        13.2256933202       21.4798454970       23.9822937312
 Si        13.2740119393       26.9646796925       18.5151433018
 Si        19.1967076754       10.7741082357       19.0504555567
 Si        18.2440734916       10.8061869879       23.4834178553
 Si        18.7901759184       16.1696738340       13.0726418171
 Si        18.7185707026       16.1257823579       18.5370752792
 Si        18.6989096062       16.1050341833       23.9896476361
 Si        18.2403719008       16.5517840644       29.3541927444
 Si        18.7319739980       21.5670783250       13.2463239780
 Si        18.7203186390       21.5634415808       18.5642965950
 Si        18.7377774147       21.5378131009       23.9896256735
 Si        19.2338790857       21.0194708305       29.3604815406
 Si        18.7031123212       27.0136385931       13.0515778327
 Si        18.7199440884       26.8570127146       18.5782371756
 Si        18.7153818112       27.0888632381       24.0229412783
 Si        23.6818167905       10.7302146649       18.0952689564
 Si        24.1851008785       16.0630328752       13.1450369978
 Si        24.1478490180       16.1276324631       18.5427353737
 Si        24.1615621759       16.1015875874       23.9921984956
 Si        24.2035615243       21.5543791855       13.0203203853
 Si        24.1616654878       21.5649027995       18.5490372244
 Si        24.1776979416       21.5792908782       24.0327856141
 Si        23.6787526682       22.0128372076       29.2959358966
 Si        24.1549629551       27.0711688437       18.5999853819
 Si        24.2183480133       26.9475167786       24.0833315599
 Si        29.5192207442       16.5797443848       18.0767930046
 Si        29.4334830114       21.0271620490       19.0484243414
 Si        29.4583886376       22.0751221692       23.4824495115
 Si        10.6895163311       16.5615873219       21.8053046645
 Si        10.7237751651       22.0216866860       16.3511714841
 Si        10.6392851376       21.0513772868       20.8084957047
 Si        16.5225255279       10.8215782929       21.7722447462
 Si        16.0396692585       16.1508858751       15.8591977299
 Si        15.9635015864       16.0768986203       21.2635304612
 Si        15.9553447463       16.0345612758       26.7287777525
 Si        16.5221669375       22.0406020641       10.5566382854
 Si        15.9925165793       21.5499494844       15.8211201084
 Si        16.0144653645       21.5689484147       21.3328003758
 Si        16.0784243195       21.4750581139       26.7581860477
 Si        15.9753974073       26.9410488022       15.8170795877
 Si        15.9803428156       27.0607122660       21.2751890275
 Si        21.9214648231       10.7412112140       16.3687693156
 Si        20.9275142954       10.8164412528       20.7551009887
 Si        21.9489234175       16.6077546915       10.4879462936
 Si        21.4239025867       16.0961047294       15.8255775289
 Si        21.4667129885       16.1223602236       21.3026784683
 Si        21.3747603415       16.1162021389       26.7528444257
 Si        20.9627563558       21.0503676753       10.5510179491
 Si        21.4885297666       21.5858139861       15.8455932555
 Si        21.4503175573       21.5434785876       21.2996385275
 Si        21.4670493681       21.5274389610       26.6164299920
 Si        21.3789796433       27.0196218664       15.9073564739
 Si        21.4416264221       26.8805920498       21.3107811810
 Si        21.4995962379       26.9481424534       26.7715864670
 Si        26.8843007432       16.0436540405       15.8117152460
 Si        26.9657185235       16.0817775868       21.2540248610
 Si        26.9164905271       21.4803594830       15.8644040955
 Si        26.7637317373       21.5721480934       21.2781168953
 Si        26.9361666478       21.5482439147       26.7450709246
 Si        26.8665497775       26.9880406196       21.3194016362
 Si        10.6382626896       19.3101340760       19.0816300802
 Si        10.7312307552       18.2534117887       23.5585606494
 Si        10.7157176131       23.7301736646       18.0794082385
 Si        16.0614130900       13.3705470592       18.5995473941
 Si        15.9684005987       13.3594681723       24.0405934008
 Si        16.0116005555       18.8442792500       13.0206232132
 Si        16.0131246796       18.8116474219       18.5639113759
 Si        15.9938272782       18.8073108053       24.0298536696
 Si        16.5296723773       18.2937839709       29.3162276339
 Si        15.9138728496       24.3181190826       13.1076283095
 Si        15.9917725189       24.2621102037       18.5706921946
 Si        15.9666684620       24.2738881123       24.0915301312
 Si        16.4900572983       29.5331261354       18.0637253875
 Si        21.4839135465       13.3950351386       13.0989767316
 Si        21.4310940128       13.5108773534       18.5652238011
 Si        21.4278337905       13.3114441320       24.0054180448
 Si        21.4652080329       18.8516479693       13.2549678377
 Si        21.4464950517       18.8416143670       18.5552033649
 Si        21.4852655752       18.7950868042       24.0114764114
 Si        20.9494014847       19.3115297988       29.3074997656
 Si        21.3829972539       24.2561001851       13.0922948114
 Si        21.4421286928       24.2509133354       18.5824750250
 Si        21.4347762580       24.2863982662       24.0506111867
 Si        21.9589917547       23.7304541865       29.3022204289
 Si        20.9085496237       29.5643325616       19.0964175321
 Si        21.9262612877       29.5503470662       23.5081948575
 Si        26.8424614879       13.4009782961       18.5371324720
 Si        26.9555797990       18.7894272870       13.1030664873
 Si        26.7664128757       18.8041006961       18.5779085952
 Si        26.9010829200       18.9029766859       23.9568819550
 Si        26.9198323958       24.2500296370       18.6177056283
 Si        26.8863468782       24.3353741884       24.0627656007
 Si        13.2472771217       13.3191393119       21.2759775611
 Si        13.2411189281       18.8798188133       15.8936555173
 Si        13.3866338270       18.8343541371       21.3049877266
 Si        13.2343983800       18.8330961177       26.7637042316
 Si        13.2742534255       24.2912080261       15.8275058654
 Si        13.2378994178       24.2241152368       21.2271642010
 Si        18.7469320468       13.2895010843       15.8316216781
 Si        18.7351429116       13.5299306243       21.2932029586
 Si        18.6983649227       13.4048701629       26.6852738463
 Si        19.2582237159       19.3430047796       10.5520778015
 Si        18.7111293168       18.8391875869       15.8520104111
 Si        18.7183932647       18.8189561719       21.2844111334
 Si        18.7354704025       18.8030996926       26.6124086175
 Si        18.2172895651       23.7790347129       10.5585697573
 Si        18.7091352971       24.2791948179       15.8235264094
 Si        18.6827726495       24.2716639489       21.3451508229
 Si        18.7800950650       24.2079929079       26.7824861674
 Si        18.2065400754       29.6010838633       16.3450484232
 Si        19.1751147539       29.6062896137       20.7887428917
 Si        24.1720798765       13.4024961381       15.8458501177
 Si        24.1327758363       13.3649477606       21.2074240570
 Si        23.6852071626       18.3472882737       10.4957466140
 Si        24.1850860709       18.8232177386       15.8221834016
 Si        24.1650639098       18.8138547230       21.3071205502
 Si        24.2046773198       18.8281191449       26.8038107642
 Si        24.1431793544       24.2827753585       15.8832023936
 Si        24.1574755614       24.2767896889       21.3085365161
 Si        24.2626138032       24.3196366099       26.7534435459
 Si        23.6427622704       29.6276127315       21.7855918310
 Si        29.5114725525       18.3182688850       16.3311911347
 Si        29.4915207770       19.3373940001       20.7801846519
 Si        29.5031169813       23.7978627856       21.7592932971
  C         7.7252902580       19.6483083837       18.6643850773
  C         8.9285029496       18.7269854545       18.4093963901
  C         6.4190128704       19.1095592492       18.0575573946
  H         7.9269231516       20.6546891471       18.2662932255
  H         7.5878271239       19.7801220536       19.7471358298
  C         5.1973195045       19.9664440104       18.4211377391
  H         6.2641611218       18.0751084285       18.3997299229
  H         6.5248557067       19.0443023057       16.9653228804
  H         5.0511091005       20.0070742865       19.5096122686
  H         5.3152161223       21.0009987851       18.0714188527
  H         9.0617507063       18.5736783621       17.3269766096
  H         8.7252654133       17.7315347727       18.8292626168
  H         4.2729955020       19.5710553402       17.9788033381
  C        13.3450170110        9.3955237642       23.0937091147
  C        13.5407138024       10.7924674267       23.7076205559
  C        12.3886631173        8.5056413197       23.9038471546
  H        14.3209213686        8.8942766452       23.0058206922
  H        12.9767004724        9.4831809767       22.0595344148
  C        12.2726891077        7.0856329136       23.3315681968
  H        11.3965145523        8.9798003819       23.9440458543
  H        12.7361047745        8.4610374357       24.9470255659
  H        11.9189897923        7.0994571273       22.2914926382
  H        13.2460411166        6.5754703469       23.3345017317
  H        13.9693607020       10.7035589275       24.7166861640
  H        12.5660585854       11.2863395129       23.8406066124
  H        11.5741706398        6.4658735578       23.9101702472
  C        24.8519471721       16.4312685819       28.3785977568
  C        25.3963611304       17.7814243700       27.8882774142
  C        25.8525255054       15.6447350757       29.2413442830
  H        24.5690828289       15.8176842923       27.5105105471
  H        23.9195587215       16.5808684817       28.9435096466
  C        25.3255395631       14.2569527502       29.6360913731
  H        26.0950571882       16.2271839312       30.1420335790
  H        26.8006002969       15.5422304274       28.6918403170
  H        24.3829730018       14.3303975130       30.1960337768
  H        25.1257226838       13.6401119122       28.7488129305
  H        26.3124164459       17.6225872529       27.2973553940
  H        25.6934251006       18.4094909678       28.7425675544
  H        26.0415853572       13.7094110679       30.2643914428
  C         8.1411775257       20.9235749719       22.3410844873
  C         8.9449209311       21.7742656528       21.3469359318
  C         6.7578562128       21.5038644062       22.6753569466
  H         8.7196181992       20.8073430196       23.2690082793
  H         8.0193090818       19.8989192589       21.9561252640
  C         5.9947653076       20.6465345953       23.6962244852
  H         6.1707612047       21.6011568840       21.7501959485
  H         6.8771947330       22.5279805852       23.0573509081
  H         5.8381696289       19.6255552277       23.3213684354
  H         6.5512802205       20.5607140183       24.6395415433
  H         9.1596639516       22.7614398917       21.7861327423
  H         8.3598698471       21.9755413898       20.4371743945
  H         5.0077012396       21.0671986561       23.9311986931
  C        32.3184686576       23.2955177587       20.9839145202
  C        31.2634684851       24.3788778366       21.2645567028
  C        33.6448538284       23.8918925581       20.4795949840
  H        31.9375172154       22.5784276825       20.2419523517
  H        32.4984096676       22.7099254592       21.8972142522
  C        34.7310522767       22.8336474504       20.2385062208
  H        34.0035850637       24.6398084546       21.2017086878
  H        33.4539488335       24.4496728149       19.5514925305
  H        34.9768937491       22.2944173198       21.1635419829
  H        34.4044977955       22.0850903317       19.5035656643
  H        31.1303083044       25.0162972418       20.3754252208
  H        31.6267635454       25.0500155715       22.0573616102
  H        35.6598974402       23.2827721464       19.8619358485
  C        12.9492985386       30.6823093773       16.7617708980
  C        13.6092679842       29.5069145450       16.0202850342
  C        12.1492047672       31.6095104291       15.8312199192
  H        13.7222793932       31.2684221266       17.2812380519
  H        12.2893963682       30.3029966034       17.5571516060
  C        11.5721193186       32.8305068559       16.5618237547
  H        11.3405959951       31.0363498900       15.3547858571
  H        12.7991415380       31.9392335809       15.0075889243
  H        10.9024962761       32.5303575710       17.3793410487
  H        12.3697968171       33.4416321699       17.0059493628
  H        14.2771807713       29.8829265393       15.2291714700
  H        12.8515654507       28.8943692532       15.5071786394
  H        10.9976275247       33.4788116310       15.8860443148
  C        18.2836712818       28.9849263802       26.2289849245
  C        17.6131193684       28.2991062591       25.0297563007
  C        17.3873511928       30.0309333001       26.9123002607
  H        19.2268502889       29.4593135997       25.9159964748
  H        18.5733979658       28.2232344991       26.9662841644
  C        18.0523668529       30.6577590132       28.1467102982
  H        16.4356692570       29.5592821340       27.1982513695
  H        17.1222484581       30.8144110926       26.1874822608
  H        18.2949745299       29.8939432869       28.8984640282
  H        18.9929775855       31.1600820651       27.8824237015
  H        17.2604995316       29.0551786081       24.3095300021
  H        16.7138753803       27.7598589871       25.3631184662
  H        17.4040564564       31.4019356122       28.6293409690
  C        12.5081683133       14.4502098637       16.2437102456
  C        11.9348477375       15.1413239069       17.4901940585
  C        11.4757034860       13.5879719141       15.4993294640
  H        13.3728574017       13.8263624729       16.5174116376
  H        12.9069977608       15.2117826538       15.5571910275
  C        12.0524257252       12.9264549810       14.2403788443
  H        10.6087057218       14.2100628591       15.2321718123
  H        11.0876262706       12.8171512487       16.1827377777
  H        12.4036952348       13.6790362473       13.5200687751
  H        12.9127964634       12.2860755646       14.4812192210
  H        11.4438709513       14.4056811923       18.1467792281
  H        11.1446817915       15.8499684908       17.1942365565
  H        11.3089408927       12.3019164016       13.7265053562
  C        14.8972570147       13.7790752531       29.5356384280
  C        16.3898825526       13.5108621351       29.2884525144
  C        14.2204346317       12.6879037023       30.3820251138
  H        14.3752005844       13.8611017118       28.5704792966
  H        14.7618640263       14.7570613320       30.0196798846
  C        12.7067275057       12.9053938855       30.5246262673
  H        14.6920582439       12.6488503152       31.3745859496
  H        14.4142689534       11.7058885864       29.9254607362
  H        12.4804596877       13.8763188700       30.9864503849
  H        12.2104016665       12.8917433341       29.5441184540
  H        16.5130829390       12.5067579746       28.8564770928
  H        16.9388230017       13.4840128792       30.2431637793
  H        12.2365732659       12.1281358662       31.1424245156
  C        30.1120886517       12.4930264527       16.9840799449
  C        29.3949609892       13.5681542392       16.1494065148
  C        30.9441278268       11.5176488710       16.1354527190
  H        29.3692199331       11.9224814698       17.5618055389
  H        30.7578445229       12.9663825532       17.7400006753
  C        31.5488425871       10.3760599382       16.9654391595
  H        31.7397603900       12.0722115083       15.6165076038
  H        30.3068230913       11.1030007027       15.3403090623
  H        32.1987291343       10.7588544862       17.7642119759
  H        30.7636174636        9.7771188353       17.4474072406
  H        28.7588767644       13.0837514715       15.3929058370
  H        30.1225750441       14.1731052578       15.5871072367
  H        32.1505906881        9.6945641139       16.3484557054
  C        29.1603667377       28.1970657359       23.8643674461
  C        29.5728343461       26.7421844587       23.5897945617
  C        30.1983564565       28.9786075366       24.6863304802
  H        28.1932398456       28.2309340172       24.3849106691
  H        28.9863476843       28.7135483185       22.9080942996
  C        29.8023942572       30.4475336622       24.8961830047
  H        31.1784674195       28.9192169520       24.1911682046
  H        30.3305102906       28.4833814848       25.6604248681
  H        29.7139217888       30.9774700276       23.9379307449
  H        28.8307670979       30.5307522505       25.4034861014
  H        29.8526017038       26.2367691017       24.5265264278
  H        30.4852665438       26.7370743713       22.9732576849
  H        30.5394968846       30.9873370949       25.5062262538
  C        14.3847706359       29.4995879613       21.6260717139
  C        14.8551310744       28.2111048094       22.3203038623
  C        13.4462513245       30.3374991132       22.5114324765
  H        13.8735046528       29.2538905875       20.6830197208
  H        15.2560535428       30.1070607373       21.3356231600
  C        12.9467409267       31.6122988125       21.8174390967
  H        13.9667009077       30.5960416641       23.4453286290
  H        12.5906717139       29.7166556204       22.8158318101
  H        13.7818393232       32.2653462862       21.5289435951
  H        12.3897287657       31.3753637179       20.9002670078
  H        13.9817933677       27.6150334043       22.6270342523
  H        15.3880533152       28.4578898639       23.2504154535
  H        12.2803070521       32.1963114408       22.4673888079
  C         9.7999866190       12.7289149873       23.1475177176
  C        10.7978944148       13.6662525784       23.8487699044
  C         9.0300812239       11.8211047358       24.1206416594
  H        10.3234858649       12.0972662476       22.4161054096
  H         9.0848183725       13.3217531652       22.5575686473
  C         8.0280356292       10.9044337003       23.4037099277
  H         8.5108348867       12.4395681415       24.8668477264
  H         9.7504136584       11.2154817336       24.6908893254
  H         7.2716107715       11.4869082490       22.8601165659
  H         8.5311360225       10.2622701475       22.6673006926
  H        11.4643744494       13.0882059288       24.5080041300
  H        10.2576609843       14.3564078902       24.5134687200
  H         7.4969995301       10.2471588109       24.1056062861
  C        26.1127948358        9.6019747171       15.5199057302
  C        26.6849810106       10.8867698882       16.1384592084
  C        27.1844687772        8.7569258153       14.8098350656
  H        25.3065675098        9.8488559907       14.8129248693
  H        25.6419812335        8.9915656658       16.3043661325
  C        26.6422150702        7.4216208388       14.2812577708
  H        28.0142133914        8.5721773475       15.5084191609
  H        27.6201503632        9.3399498682       13.9848700294
  H        26.2257102940        6.8113203865       15.0951485010
  H        25.8400579585        7.5765337127       13.5469667220
  H        27.1206078948       11.5250218769       15.3535733430
  H        27.5218780078       10.6290163070       16.8068295833
  H        27.4261562973        6.8266235807       13.7926112814
  C        18.5703230484       17.0295396072       32.2513062927
  C        18.7791136278       16.0103153113       31.1187568552
  C        19.0666605732       16.5126565445       33.6123821129
  H        17.5028292229       17.2828283142       32.3241527925
  H        19.0804072357       17.9749690726       32.0085964889
  C        18.7494194595       17.4725124435       34.7678636229
  H        20.1496368854       16.3310379366       33.5579857127
  H        18.6142377140       15.5297567230       33.8095001539
  H        19.2052906921       18.4590233025       34.6082861626
  H        17.6665427685       17.6283583939       34.8688553943
  H        18.2435306825       15.0793625560       31.3587025479
  H        19.8425331742       15.7316802931       31.0480772494
  H        19.1178630113       17.0903277595       35.7296784648
  C        28.8948294723       15.1268708714       12.7054984749
  C        29.4959169648       16.3573254807       13.4026753395
  C        29.8973515517       14.3644734621       11.8238423103
  H        28.0253548132       15.4233074861       12.0995217403
  H        28.4948553162       14.4408100245       13.4642631041
  C        29.2938592119       13.0880342118       11.2180597524
  H        30.7842709401       14.1090340748       12.4223355944
  H        30.2609446350       15.0262454733       11.0244032313
  H        28.9706147768       12.3899426001       12.0031478492
  H        28.4098487669       13.3135046548       10.6049283404
  H        29.9217939841       17.0443533625       12.6539525856
  H        30.3444765404       16.0532287903       14.0358797246
  H        30.0122019998       12.5556493204       10.5798085228
  C        25.2821123104       18.1014112946        8.0527071911
  C        24.2138420536       18.9570806440        8.7521303629
  C        25.6101712822       18.5840701744        6.6304282524
  H        24.9635034206       17.0493481617        8.0144262657
  H        26.2006189325       18.1012806936        8.6585624811
  C        26.7178616059       17.7545432590        5.9652762195
  H        25.9035796822       19.6435075325        6.6675073198
  H        24.6969475314       18.5525068062        6.0178202495
  H        27.6513841446       17.8000120984        6.5430703579
  H        26.4341034016       16.6954271367        5.8916115234
  H        23.3072631138       19.0355327844        8.1325389535
  H        24.5799894056       19.9893823803        8.8686700681
  H        26.9410179626       18.1081803615        4.9495950459
  C         9.9980429200       23.1035379572       12.3174657706
  C        10.7175751226       23.9562142788       13.3772877385
  C         8.9799063258       23.8934217047       11.4791920433
  H         9.4908637774       22.2542394619       12.8004503940