859
 i =      136, E =     -2353.3442349027
 Si        14.5707027692       14.8261127598       20.0563415345
 Si        14.5921524019       14.8418796196       25.5338332983
 Si        14.5877873122       20.2771808861       14.5929695238
 Si        14.6941265309       20.2896422995       20.0742043922
 Si        14.5945466120       20.2770113296       25.5103358244
 Si        14.5563102456       25.7199650747       14.6025871736
 Si        14.5944509454       25.7477549664       20.0304558428
 Si        20.0170075245       14.8045931755       14.6085515633
 Si        20.0497027625       14.9374883622       20.0649846489
 Si        20.0599906615       14.8540336105       25.4983365970
 Si        20.0414779005       20.2858550523       14.6877142912
 Si        20.0326450466       20.3019777574       20.0476115511
 Si        20.0427426754       20.2994802397       25.4118802862
 Si        20.0219633722       25.7507359924       14.5688595575
 Si        20.0422467607       25.6489755248       20.0344342234
 Si        20.0337625110       25.7874121290       25.5226600504
 Si        25.4929478625       14.8500525280       14.6385915617
 Si        25.4662839139       14.8721501183       20.0569295801
 Si        25.4814304361       20.2593031244       14.5724235796
 Si        25.3910051313       20.3068590813       20.0561242853
 Si        25.4662098081       20.3396735429       25.5131980119
 Si        25.4751531485       25.7531052695       20.0493121154
 Si        25.5207633016       25.8067830636       25.5461299620
 Si        14.6485626646       12.1241806706       22.8619011545
 Si        14.5501767994       17.5592009683       17.3427404525
 Si        14.6419293606       17.5498379361       22.8068350555
 Si        14.6493747640       17.5966950152       28.2585451546
 Si        14.5858913880       23.0024760664       11.8206707858
 Si        14.6100654233       23.0196682356       17.3001688027
 Si        14.5514393317       23.0322306404       22.7919371802
 Si        14.6223430080       28.4550069663       17.2446553423
 Si        20.1305989603       12.1312712707       17.4229122574
 Si        19.9792342509       12.1312953639       22.7131036529
 Si        20.1279617881       17.6190267750       11.9001472260
 Si        20.0333830281       17.5711406767       17.3265466670
 Si        20.0377781809       17.5796653027       22.7813484216
 Si        19.9830272132       17.6606107007       28.2229492988
 Si        19.9632852903       22.9155634269       11.8717551840
 Si        20.0365685030       23.0121266859       17.2965346520
 Si        20.0393101470       23.0365224993       22.7792846928
 Si        20.1261505950       22.9292630660       28.2194033451
 Si        19.9427133108       28.4628742751       17.3807623661
 Si        20.1085249484       28.4333675736       22.6564995655
 Si        25.4571152446       12.1166753236       17.3184679012
 Si        25.4519320835       17.5289394981       11.8762339451
 Si        25.4481447934       17.5584554348       17.3105299930
 Si        25.5435650509       17.5778362881       22.7799191659
 Si        25.5184774941       23.0057918261       17.3141127023
 Si        25.4584654188       23.0545825950       22.8101748199
 Si        25.4763587596       23.0641434303       28.2280735662
 Si        25.4240577588       28.4752804123       22.7495383817
 Si        11.8942179677       17.6382470883       20.1704638785
 Si        11.8913649034       17.5256509221       25.5162849815
 Si        11.8455348793       23.0203569796       14.6328058563
 Si        11.8990607326       22.9071338731       19.9855472108
 Si        17.4212400829       12.1429347636       20.1474562450
 Si        17.3229121150       12.1067446120       25.5173210522
 Si        17.3101289912       17.5716427299       14.5623642923
 Si        17.3134748958       17.5588557251       20.0551816922
 Si        17.2998066129       17.5352419972       25.5008605830
 Si        17.2675803111       23.0469357432       14.5939779293
 Si        17.3135130326       23.0187607775       20.0566901818
 Si        17.3195030821       23.0280500042       25.5329603694
 Si        17.2962628130       28.4141205725       14.6089410834
 Si        17.3930114818       28.4412050335       19.9449054337
 Si        22.7879425241       12.1346291563       14.6912647862
 Si        22.6961414537       12.1229948731       19.9744540893
 Si        22.7739831248       17.5160742175       14.6319333678
 Si        22.7598031082       17.5893162935       20.0633056203
 Si        22.7725320094       17.6035987843       25.5308650724
 Si        22.7715214582       23.0025013843       14.5327377403
 Si        22.7605586674       23.0207119923       20.0418686863
 Si        22.7719474051       23.0660323820       25.4854405723
 Si        22.6727087151       28.4684792309       20.1002206090
 Si        22.7773933229       28.4843930553       25.4256479747
 Si        28.2290697594       17.5242401724       14.6317906618
 Si        28.1702082364       17.6567766106       19.9596732187
 Si        28.1838585981       22.9459168670       20.1351231738
 Si        28.2272059539       23.0644842069       25.4619862716
 Si        11.8996476458       14.8629760701       22.8451388942
 Si        11.8771697090       20.3471572243       17.4566376073
 Si        11.8748728997       20.1980794082       22.7073334180
 Si        11.8316197083       25.6987981242       17.3005404840
 Si        17.3445913325       14.8084687262       17.3446168986
 Si        17.2971468845       14.8667100862       22.8146578250
 Si        17.3055958953       14.8920522616       28.2468660262
 Si        17.4049599735       20.3509750423       11.9094999606
 Si        17.3046863206       20.2849967032       17.3205472174
 Si        17.3226274108       20.3062342593       22.7918705924
 Si        17.4223613048       20.2170552898       28.2168238538
 Si        17.2515486732       25.6958798788       11.8384041178
 Si        17.2946723483       25.6932088185       17.2976012575
 Si        17.3242004455       25.7848498649       22.7663010855
 Si        22.7960986892       14.8418997022       11.8759069915
 Si        22.7721113852       14.8819691533       17.3240567819
 Si        22.7536648814       14.8286608245       22.7772419229
 Si        22.6918705559       20.1622689204       11.8871732904
 Si        22.7656149867       20.2984167553       17.3157238568
 Si        22.7646259071       20.2990538030       22.7772394721
 Si        22.7030415125       20.3753195363       28.2187889038
 Si        22.7567467428       25.7625992842       17.3404993909
 Si        22.7904782274       25.7274876010       22.7987949948
 Si        22.8158777560       25.7377089656       28.2460502413
 Si        28.2154421860       14.8852692884       17.3166858807
 Si        28.1934373815       20.1986920173       17.4053306466
 Si        28.2039995268       20.3844699274       22.6879293253
 Si        28.2095463865       25.7294650261       22.8082646218
 Si        13.1589666864       16.2221405603       18.7256987389
 Si        13.2940441540       16.1923450785       24.1834728780
 Si        13.2296604162       21.6490067750       13.2522302573
 Si        13.3711247048       21.6326378444       18.7045068805
 Si        13.1914607332       21.5993079487       24.1130556607
 Si        13.2409831458       27.0915465052       18.6384901380
 Si        19.1850845629       10.8764123049       19.1978763847
 Si        18.1854005271       10.9112846038       23.6515305625
 Si        18.7203998962       16.2275977744       13.2119385677
 Si        18.6741763343       16.2238977924       18.6846600843
 Si        18.6827183110       16.2116458070       24.1449339633
 Si        18.2228259633       16.7012045491       29.4767454140
 Si        18.6814606193       21.6516550715       13.3658895113
 Si        18.6705661942       21.6566402614       18.6778833496
 Si        18.6698178389       21.6871111597       24.1295556332
 Si        19.1817608116       21.1657137247       29.4830837922
 Si        18.6687445350       27.0886802175       13.1668766157
 Si        18.6800362436       26.9699564677       18.6695944165
 Si        18.7006010762       27.1857889080       24.1199323934
 Si        23.6394954481       10.8577321420       18.2012138759
 Si        24.1570396341       16.1536942089       13.2720603055
 Si        24.1074863158       16.2282435341       18.6956461560
 Si        24.1235421545       16.2298822619       24.1334350253
 Si        24.1178426797       21.6105083528       13.1438045816
 Si        24.1081271104       21.6742016601       18.6671051795
 Si        24.1023802370       21.6824471866       24.1398646931
 Si        23.6301752822       22.1772231898       29.4311599359
 Si        24.1106938256       27.1706237709       18.7035811095
 Si        24.1708869164       27.0869279887       24.1643113102
 Si        29.4522569533       16.7176783986       18.2101410380
 Si        29.4043209229       21.1464881399       19.2020441539
 Si        29.4285610797       22.1810049198       23.6107224569
 Si        10.6413867881       16.6722156673       21.9420693309
 Si        10.6634546458       22.1290769250       16.4953981435
 Si        10.6182598606       21.1601493154       20.9366686676
 Si        16.4743707454       10.9286006662       21.9374712116
 Si        15.9748865739       16.2094366978       15.9878848916
 Si        15.9507018756       16.1903151818       21.4162353214
 Si        15.9112908575       16.1818472084       26.8732824633
 Si        16.4657034747       22.1179341080       10.6666519314
 Si        15.9510347398       21.6483038016       15.9478181626
 Si        15.9710585527       21.6830460108       21.4510812405
 Si        15.9985143336       21.6059826144       26.9030442650
 Si        15.9285463033       27.0316916886       15.9187745589
 Si        15.9727341826       27.1639635385       21.3662382130
 Si        21.8975145905       10.8565954590       16.4853410609
 Si        20.8988132837       10.8979424384       20.9123777903
 Si        21.8863981417       16.6626804574       10.6444401503
 Si        21.3762234289       16.1869596258       15.9686122622
 Si        21.4169785915       16.2381176917       21.4350677770
 Si        21.3754882208       16.2614315564       26.8933067952
 Si        20.9006574555       21.1087369017       10.6665485561
 Si        21.4268840862       21.6680836589       15.9585702192
 Si        21.3990793015       21.6622479634       21.4135145425
 Si        21.4068640670       21.6495797643       26.7404222661
 Si        21.3506091684       27.1222312005       16.0005808533
 Si        21.4112603435       26.9734898721       21.3848730475
 Si        21.4491619659       27.1206025715       26.8631212105
 Si        26.8230047596       16.1947585742       15.9590527879
 Si        26.9073936453       16.2188007172       21.3861766897
 Si        26.8766845488       21.5836705907       15.9836799696
 Si        26.7139287042       21.6649920329       21.4187049737
 Si        26.8617342130       21.6775635782       26.8595354764
 Si        26.8388911877       27.0993023776       21.4200376460
 Si        10.6124908832       19.4060500904       19.2348437480
 Si        10.6766588556       18.3906030232       23.6616983085
 Si        10.6635776718       23.8417874259       18.2077000288
 Si        16.0094179049       13.4542632326       18.7511846677
 Si        15.9543872926       13.5140645876       24.2205028712
 Si        15.9574337669       18.9420164635       13.1641075747
 Si        15.9649536849       18.9077681951       18.6824049957
 Si        15.9746311866       18.9278713942       24.1530725974
 Si        16.5101212561       18.4345602553       29.4670039357
 Si        15.8649373547       24.4023509693       13.2216877320
 Si        15.9492669197       24.3642745675       18.6818258149
 Si        15.9403284425       24.4154311748       24.1577945899
 Si        16.4645254641       29.6500189373       18.1397510348
 Si        21.4258367246       13.4784113083       13.2715651230
 Si        21.4060934013       13.6053046021       18.7075728694
 Si        21.3933314892       13.4290435836       24.1296483968
 Si        21.3972058885       18.9082101361       13.3713644725
 Si        21.3988676234       18.9432257508       18.6858793030
 Si        21.4167778366       18.9273933158       24.1211455799
 Si        20.9027825456       19.4619002694       29.4481399971
 Si        21.3486976381       24.3417246812       13.1838888178
 Si        21.4053916431       24.3514000808       18.6607311913
 Si        21.3881670019       24.4123761630       24.1474839410
 Si        21.9113544000       23.8848337052       29.4269331646
 Si        20.8617335206       29.6896275576       19.1875047114
 Si        21.8827471397       29.6804648661       23.5851890507
 Si        26.8146480483       13.5260937242       18.6854452272
 Si        26.8711646386       18.9037496213       13.2217791616
 Si        26.7027136932       18.9464288408       18.6909558823
 Si        26.8676095338       19.0273783825       24.1140145613
 Si        26.8703578140       24.3443408118       18.7299928447
 Si        26.8090879901       24.4356257616       24.1848467419
 Si        13.2532161330       13.4623917498       21.4558811222
 Si        13.1929287800       18.9859584170       16.0204926103
 Si        13.3681007223       18.9321277308       21.4333917354
 Si        13.2216962622       18.9534276756       26.9018937993
 Si        13.2348507117       24.3852259503       15.9429875879
 Si        13.1966503757       24.3473794693       21.3516996411
 Si        18.6952672120       13.3910569649       15.9990782429
 Si        18.6988099988       13.6157179729       21.4342416505
 Si        18.6882824056       13.5236392894       26.8639154653
 Si        19.1864774002       19.4084070312       10.6762574221
 Si        18.6559825754       18.9138831765       15.9751537486
 Si        18.6715287515       18.9389902863       21.4147976356
 Si        18.6946868675       18.9311159297       26.7422093054
 Si        18.1620582438       23.8460056370       10.6627539692
 Si        18.6679850108       24.3756698689       15.9339208533
 Si        18.6640753642       24.3745086726       21.4220659678
 Si        18.7356475487       24.3474799061       26.9088429908
 Si        18.1687122856       29.7000264656       16.4128529566
 Si        19.1437668144       29.7054753381       20.9035347369
 Si        24.1533730502       13.5304475674       15.9751986824
 Si        24.0855396087       13.4584711866       21.3753751790
 Si        23.6275274603       18.3839896704       10.6181670123
 Si        24.1120904161       18.9198690359       15.9535635432
 Si        24.1207746743       18.9220501308       21.4385511924
 Si        24.1302305906       18.9668366121       26.9259018461
 Si        24.1067147825       24.3657809301       15.9634938612
 Si        24.1206039083       24.3824701581       21.4133114013
 Si        24.1654554293       24.4333348317       26.8273915559
 Si        23.6121640091       29.7253497217       21.8727936262
 Si        29.4495094397       18.4244759258       16.4607147781
 Si        29.4342941349       19.4269653333       20.9083013733
 Si        29.4421136695       23.9075816882       21.8940270869
  C        18.7464297644       16.1383072906       31.1902058714
  C        18.9686264183       16.9263660377       32.2591287815
  C        19.4593913461       16.4356590576       33.6035321166
  H        18.8028806021       18.0016414256       32.1713769881
  C        19.3341352792       17.4841358482       34.7190124915
  H        18.9163746083       15.5186553968       33.8761586925
  H        20.5136632357       16.1312563167       33.5072508660
  H        18.2920826200       17.8043963006       34.8575615411
  H        19.9247396138       18.3818914810       34.4857184205
  H        19.6935185360       17.0961525434       35.6823463444
  H        18.9154943838       15.0633460990       31.3086645185
  C        10.6866798940       26.7552504948       16.2526945523
  C         9.3439310142       26.6334995888       16.2410141482
  C         8.3845762535       27.4611341282       15.4230849679
  H         8.8778471972       25.8768572965       16.8773863124
  C         7.1937812312       26.6426355268       14.8917412146
  H         7.9986045006       28.2776251728       16.0563741115
  H         8.9244011746       27.9506714338       14.6003204715
  H         6.6336634159       26.1831834959       15.7178971669
  H         7.5252066875       25.8301958168       14.2304906451
  H         6.4930748966       27.2724967750       14.3275532535
  H        11.1477552591       27.5212407176       15.6214109747
  C         8.9476267856       21.8122332704       21.4962558736
  C         7.9397054286       21.0763075801       22.0027036711
  C         6.6256559414       21.6362163951       22.5042239055
  H         8.0518761421       19.9921673847       22.0673464757
  C         5.7923695344       20.6148449342       23.2924316534
  H         6.8236360542       22.5260712413       23.1197831444
  H         6.0404993828       22.0034607922       21.6462125259
  H         6.3424361965       20.2358748019       24.1649894112
  H         5.5357722143       19.7488258857       22.6655589093
  H         4.8514760642       21.0519191547       23.6537888235
  H         8.8127205684       22.8973533975       21.4364768458
  C        18.5885682049        9.2021091802       18.6225145702
  C        18.9054967095        7.9868257434       19.1163514505
  C        18.3476314954        6.6797618544       18.6057044557
  H        19.6087074150        7.9152455451       19.9490161451
  C        19.3976357991        5.5602671753       18.5143269213
  H        17.5377394832        6.3559355604       19.2818605128
  H        17.8728815619        6.8474893183       17.6273277321
  H        19.8514527492        5.3648915311       19.4942998764
  H        20.2063275308        5.8257176414       17.8219629930
  H        18.9504356580        4.6216668191       18.1651872884
  H        17.8853020264        9.2307418781       17.7816062959
  C        29.4007870650       24.0667649004       26.5464627738
  C        30.4162235498       23.4977444409       27.2260864883
  C        31.3819949012       24.2032484726       28.1424936283
  H        30.5700705969       22.4199631779       27.1352919171
  C        32.7952013177       23.5951547615       28.0939210997
  H        31.4058473066       25.2756273427       27.9031909878
  H        31.0002210732       24.1350034674       29.1748957027
  H        33.2221706095       23.6473103214       27.0833790887
  H        32.7747679225       22.5352569518       28.3853838240
  H        33.4828608984       24.1113553722       28.7775665693
  H        29.2452978112       25.1452257131       26.6419956704
  C        17.6525378182       28.4082702560       25.0817000437
  C        17.6164766832       28.5538330309       26.4209884476
  C        16.7938443947       29.5757645333       27.1650678023
  H        18.2209091069       27.8927965181       27.0465783330
  C        17.5180255549       30.1496814982       28.3963483338
  H        16.4966904341       30.3792586293       26.4761866657
  H        15.8533234494       29.1026090382       27.4949831270
  H        18.4536934070       30.6517206532       28.1157722883
  H        17.7744811446       29.3528820408       29.1083963852
  H        16.8903675811       30.8784561668       28.9273294392
  H        17.0421562893       29.0828179911       24.4713235123
  C        21.3807333781        9.1327677983       15.9347562422
  C        20.3255386351        8.9046354443       15.1287635405
  C        19.8836994286        7.5571855322       14.6085652483
  H        19.7247505404        9.7541562109       14.7926341128
  C        18.3883612717        7.5093874998       14.2516800255
  H        20.4721097078        7.3136872267       13.7087563407
  H        20.1329465686        6.7780870670       15.3437482308
  H        18.1446222866        8.2528421886       13.4790559998
  H        17.7561318093        7.7274156975       15.1239416684
  H        18.0951439827        6.5236910020       13.8648477757
  H        21.9805056308        8.2808430927       16.2667815257
  C        10.6636178286       24.0303378102       13.5790081783
  C        10.1066139977       23.5841245095       12.4355406689
  C         9.0831936499       24.3355771533       11.6089645165
  H        10.3837442856       22.5966320970       12.0591139752
  C         8.8066749846       23.6828187943       10.2468987406
  H         8.1431457725       24.4033161281       12.1803542445
  H         9.4134177003       25.3764338987       11.4772413613
  H         8.4235147914       22.6606498955       10.3713981299
  H         9.7207330173       23.6151933001        9.6403710515
  H         8.0618238206       24.2469623885        9.6698393786
  H        10.3737290312       25.0149782477       13.9567619320
  C        27.9402833210       20.0853922011       12.2295829468
  C        28.1462905633       20.0705426995       10.8984304863
  C        28.9993062022       21.0564003450       10.1394060724
  H        27.6684772052       19.2949286958       10.2949613361
  C        28.4101806895       21.4398680588        8.7703710914
  H        29.1579227094       21.9510880345       10.7579411552
  H        29.9992572037       20.6169183432        9.9848407563
  H        27.4132041149       21.8904190361        8.8720075383
  H        28.3067012467       20.5567276936        8.1243909640
  H        29.0530213695       22.1590160208        8.2449760856
  H        28.4216471225       20.8814064049       12.8092514632
  C        23.8113670598       26.7555489300       29.4604787623
  C        23.6782163347       28.0797781702       29.6696556923
  C        24.4432902881       28.8726380420       30.7099545636
  H        22.9666079861       28.6476229352       29.0661353790
  C        24.2046598459       30.3865094448       30.6240046799
  H        24.1601085440       28.5121873468       31.7114040902
  H        25.5173791958       28.6512580145       30.6179713215
  H        23.1387796938       30.6264626428       30.7392177690
  H        24.5266409185       30.7893895418       29.6536433027
  H        24.7529387246       30.9281785666       31.4067888146
  H        24.5318536139       26.2017431792       30.0708252815
  C        10.9030272407       13.6843840848       23.9183000657
  C         9.6126225241       13.3401910438       23.7345374855
  C         8.8595009016       12.3321535419       24.5690292294
  H         9.0448530732       13.8157317657       22.9324295237
  C         7.7806822058       11.5755309019       23.7753867575
  H         9.5729589628       11.6298562611       25.0241939758
  H         8.3794531260       12.8546439781       25.4131892942
  H         8.2137753284       11.0127833656       22.9370887828
  H         7.0421452797       12.2722244672       23.3541815705
  H         7.2365638037       10.8637784735       24.4112996634
  H        11.4571600974       13.1823133147       24.7187005399
  C        27.8643158678       20.5558548952       27.9903027788
  C        29.0333039788       19.9562780473       27.6908017167
  C        29.8278370578       19.0873325043       28.6352307741
  H        29.4750179095       20.1085894182       26.7019838775
  C        30.5676512139       17.9337734299       27.9383063750
  H        30.5673088225       19.7218102283       29.1523250509
  H        29.1649157200       18.7045012794       29.4242709471
  H        31.2464523254       18.3130694013       27.1610488329
  H        29.8683819367       17.2392361952       27.4541664883
  H        31.1735469921       17.3574117413       28.6509192650
  H        27.4425007937       20.3762251016       28.9843236304
  C        10.8197907719       16.4104026829       26.5741307393
  C        10.7038005348       16.5263992439       27.9120610708
  C         9.8856068201       15.6214440757       28.8091207506
  H        11.2347123502       17.3339674428       28.4213365623
  C        10.1343902126       15.8789356283       30.3027524466
  H         8.8164695256       15.7557551851       28.5822632317
  H        10.1026485437       14.5718353999       28.5610114058
  H         9.8754579161       16.9118006915       30.5732249238
  H        11.1921271141       15.7308502214       30.5617451343
  H         9.5389655656       15.2089935383       30.9377208538
  H        10.2843423777       15.6024866381       26.0649509667
  C        23.7650933151       13.6871334025       10.7472055877
  C        24.7963622191       12.9184640910       11.1501685292
  C        25.5410755822       11.9181195811       10.3076927085
  H        25.1444704584       12.9968030186       12.1823764525
  C        25.7574751176       10.5794537942       11.0415758023
  H        25.0133233546       11.7629624085        9.3572095515
  H        26.5265938952       12.3386289566       10.0444268978
  H        24.8012113998       10.1126363167       11.3140347250
  H        26.3223328687       10.7270508331       11.9732824791
  H        26.3185374533        9.8669368590       10.4213883720
  H        23.4198444592       13.5941767162        9.7131875839
  C        29.3464129169       26.7707937357       23.8744983180
  C        29.6157632641       28.0800264228       23.7084711548
  C        30.5374208116       28.8915755830       24.5884181969
  H        29.1487106020       28.6223355405       22.8829488878
  C        30.1385913935       30.3737691521       24.6795165032
  H        30.5748280479       28.4368321639       25.5890600834
  H        31.5648520951       28.8207328062       24.1949868630
  H        29.1148555873       30.4936864642       25.0598479905
  H        30.1790153553       30.8539310723       23.6919100886
  H        30.8107445847       30.9321974623       25.3451963428
  H        29.8316559228       26.2515298800       24.7068531877
  C        24.0586677940       18.8964005263        8.8655504216
  C        25.2741728874       18.7570823444        8.3008532621
  C        25.6555118936       19.1906838307        6.9073764211
  H        26.0762143798       18.3016319906        8.8872423171
  C        26.7468330369       18.3074014028        6.2784370906
  H        24.7604798724       19.2203251927        6.2696958934
  H        26.0223575312       20.2297471307        6.9519953802
  H        26.4198944610       17.2628341839        6.1835311285
  H        27.6575527909       18.3083175150        6.8951622117
  H        27.0280892672       18.6641953857        5.2779204314
  H        23.2571181504       19.3423330776        8.2680808281
  C        17.5761866198       12.2290459299       15.0317653879
  C        16.8315414064       12.5648120991       13.9592825372
  C        15.9324398199       11.6225129748       13.1921155823
  H        16.8730769006       13.5886372552       13.5799791317
  C        14.8181406363       12.3397535737       12.4133857943
  H        16.5524387608       11.0486996880       12.4837422130
  H        15.5093610533       10.8768737611       13.8808730405
  H        15.2399290576       13.0531794949       11.6916760221
  H        14.1560593938       12.9038920929       13.0838391134
  H        14.1986040297       11.6277118571       11.8516467911
  H        17.5132912683       11.1979197761       15.3947932397
  C        26.6154726707       11.0580884756       16.2914612434
  C        26.4619743071        9.7440251318       16.0347448267
  C        27.4492676406        8.8825127149       15.2734581707
  H        25.5760850986        9.2288051714       16.4103848830
  C        27.0065402820        7.4161401762       15.1642142898
  H        27.6087219408        9.3051811163       14.2694493702
  H        28.4299947990        8.9425359659       15.7706288832
  H        26.0624166738        7.3261806391       14.6097795496
  H        26.8435343387        6.9762631100       16.1581845291
  H        27.7558607138        6.8012512619       14.6483107146
  H        27.5186590457       11.5562739241       15.9235151242
  C        11.9814046611       15.1630720931       17.7186937028
  C        11.8585521409       15.1401260139       16.3776302203
  C        10.8918137057       14.2803595287       15.6071842641
  H        12.5014561079       15.7815568910       15.7708099207
  C        11.5741501651       13.4938236273       14.4718145817
  H        10.3773530634       13.5962462955       16.2961417668
  H        10.1088986012       14.9238403884       15.1718534561
  H        12.3595992878       12.8323088992       14.8619465195
  H        12.0467264613       14.1725862714       13.7486043009
  H        10.8528069443       12.8742620942       13.9219906585
  H        11.3333443489       14.4984152218       18.2993018119
  C        12.1423783830       12.2762252184       20.5092866929
  C        12.1732721217       12.0358175807       19.1833720158
  C        11.2838610662       11.0698609856       18.4408509709
  H        12.8843267574       12.5810456678       18.5594758168
  C        12.0104790341       10.3534645930       17.2885693679
  H        10.8508307157       10.3460938186       19.1455210925
  H        10.4272506462       11.6277606913       18.0244900123
  H        12.8636072833        9.7660258682       17.6529520246
  H        12.4001589841       11.0804468508       16.5617902859
  H        11.3372144526        9.6743022587       16.7485011450
  H        11.4251498899       11.7155337402       21.1178859753
  C        21.2571951463       16.1462653153        8.9539240042
  C        21.9292040342       16.2046235998        7.7879328574
  C        21.3820643402       15.7465444028        6.4518158979
  H        22.9416308230       16.6104355896        7.7797876641
  C        22.2891501625       16.1153597021        5.2684701469