755
 i =       12, E =     -2289.5029174834
 Si        14.5793388411       14.7781809149       20.0706328734
 Si        14.5806943142       14.7657206676       25.5562088121
 Si        14.5913944752       20.2573748979       14.6085105065
 Si        14.6973790049       20.2474007928       20.0748392529
 Si        14.5968473563       20.2436231340       25.5315651432
 Si        14.5666484741       25.7416782560       14.5836167969
 Si        14.5931366903       25.7135361812       20.0584670665
 Si        20.0640208902       14.7899063076       14.6163134959
 Si        20.0589866176       14.8845993302       20.0669781317
 Si        20.0511262837       14.7933113119       25.5229511344
 Si        20.0530697236       20.2502741348       14.7068957700
 Si        20.0526444723       20.2525489385       20.0713100952
 Si        20.0577473901       20.2487113253       25.4286557480
 Si        20.0469812668       25.7074801994       14.6051993598
 Si        20.0491139646       25.6124578466       20.0696211503
 Si        20.0649329737       25.7163741874       25.5320573600
 Si        25.5363548902       14.7867127909       14.5997859859
 Si        25.5125601108       14.7972425426       20.0678259403
 Si        25.5255735781       20.2505840586       14.6010305566
 Si        25.4162783181       20.2536162595       20.0766708291
 Si        25.5183349282       20.2550745479       25.5429713376
 Si        25.5123557019       25.7093105470       20.0768630325
 Si        25.5323378867       25.7481191008       25.5497872135
 Si        14.6448109863       12.0400884047       22.8244514584
 Si        14.5706112661       17.5242549449       17.3526158512
 Si        14.6290429309       17.5007134545       22.8182041962
 Si        14.6503005071       17.4930943236       28.2490103427
 Si        14.6264946531       22.9887023929       11.8645715736
 Si        14.6024902586       23.0177127253       17.3039064679
 Si        14.5650603068       22.9660480388       22.7953790766
 Si        14.6513553953       28.4297814519       17.3076370326
 Si        20.1480792591       12.0644637478       17.4172234625
 Si        19.9803838915       12.0829832248       22.7047616878
 Si        20.1547465285       17.5909482816       11.9102461858
 Si        20.0472761072       17.5252753302       17.3455319263
 Si        20.0570277929       17.5158879087       22.7945401279
 Si        19.9802837234       17.6109261292       28.2282767322
 Si        19.9753543184       22.8909841116       11.9001827223
 Si        20.0513060202       22.9747489247       17.3351326305
 Si        20.0468281734       22.9869713565       22.8017018817
 Si        20.1271273454       22.8889093886       28.2247121779
 Si        19.9764666334       28.4175572304       17.4195332022
 Si        20.1510351874       28.4165082932       22.7062216039
 Si        25.4800978450       12.0806288424       17.3278757311
 Si        25.4704029516       17.5007985747       11.9036462580
 Si        25.4907464842       17.4976262599       17.3231688568
 Si        25.5505144718       17.5347032911       22.7942694876
 Si        25.5403794678       22.9710101643       17.3451773790
 Si        25.4884881147       23.0097236141       22.8385542979
 Si        25.4866824502       22.9993686659       28.2692718135
 Si        25.4645904369       28.4135497732       22.8184033433
 Si        11.8763653747       17.6001920588       20.1657838066
 Si        11.8858988500       17.4860957718       25.5025159251
 Si        11.8514696103       22.9864653665       14.6523582457
 Si        11.9013171466       22.8800026493       20.0058552270
 Si        17.4154686110       12.1008734787       20.1508868666
 Si        17.3217394825       12.0515613067       25.4930445671
 Si        17.3336365991       17.5265011624       14.5843547307
 Si        17.3244607337       17.5103238393       20.0698206250
 Si        17.3071184020       17.4945377123       25.4970868174
 Si        17.2849245025       23.0058382038       14.6239323992
 Si        17.3194988447       22.9842293135       20.0777954794
 Si        17.3392127746       22.9643816339       25.5581503922
 Si        17.3029003566       28.4116225378       14.6505878420
 Si        17.4157030171       28.4121810000       19.9732441199
 Si        22.8206415451       12.0930562390       14.6628045056
 Si        22.7013727162       12.0775554389       19.9861527057
 Si        22.8034491905       17.5040578211       14.6620968278
 Si        22.7845779759       17.5288392424       20.0795527779
 Si        22.7794761544       17.5283921263       25.5521868342
 Si        22.7702438780       22.9672309332       14.5820660904
 Si        22.7840364729       22.9761031119       20.0683757340
 Si        22.8165398387       23.0179550370       25.5223401712
 Si        22.7004676171       28.4222359860       20.1416504893
 Si        22.8076671805       28.4264093174       25.4723622836
 Si        28.2432392733       17.5016869223       14.6504906386
 Si        28.2352825211       17.6063165409       19.9848749317
 Si        28.2126316796       22.8902811372       20.1459779482
 Si        28.2586800521       23.0050491125       25.4858143463
 Si        11.8944973795       14.8176860111       22.8392087591
 Si        11.9064176567       20.3205479183       17.4449770760
 Si        11.8803694128       20.1507757454       22.7320207171
 Si        11.8537164242       25.6715863444       17.3334900400
 Si        17.3351755528       14.7550364294       17.3480592893
 Si        17.2893936307       14.8057778162       22.8298815078
 Si        17.3159536944       14.8302004118       28.2421881771
 Si        17.4271291133       20.3188702692       11.9064740223
 Si        17.3173464740       20.2544305047       17.3433135627
 Si        17.3288152064       20.2494767067       22.8010449201
 Si        17.4023770917       20.1573725057       28.2360349146
 Si        17.2982033663       25.6697526056       11.8799588798
 Si        17.3044033079       25.6672212700       17.3182176903
 Si        17.3126374137       25.7656392807       22.8100368007
 Si        22.8236890340       14.8347400224       11.9097713315
 Si        22.8095525780       14.8247933828       17.3285541492
 Si        22.7828776437       14.7614726220       22.7906796120
 Si        22.7041988340       20.1560867722       11.9051791349
 Si        22.7890878951       20.2522471024       17.3426969001
 Si        22.7838076024       20.2568773423       22.8095649103
 Si        22.6897653326       20.3302459302       28.2408302261
 Si        22.7649161544       25.7289321634       17.3504943556
 Si        22.7993981415       25.6684476176       22.8157432058
 Si        22.7956533347       25.6784979245       28.2695212706
 Si        28.2518960940       14.8350843364       17.3268627324
 Si        28.2114876340       20.1636706033       17.4330344886
 Si        28.2132541835       20.3416309934       22.7180274770
 Si        28.2324385637       25.6770069940       22.8136872188
 Si        13.1778221795       16.1912875957       18.7490066222
 Si        13.2924323021       16.1227828362       24.2010288386
 Si        13.2361719745       21.6336026414       13.2554818873
 Si        13.3787288520       21.6125049734       18.7135460664
 Si        13.1939267315       21.5608367624       24.1333627316
 Si        13.2449529743       27.0681201763       18.6779960714
 Si        19.1862456208       10.8479090250       19.2075403382
 Si        18.2017126287       10.8505042420       23.6443872943
 Si        18.7433844596       16.1892168448       13.2188912138
 Si        18.6771375837       16.1696679434       18.6907436022
 Si        18.6862180188       16.1532129740       24.1552160622
 Si        18.2109254549       16.6568145770       29.4709211761
 Si        18.6922589605       21.6150870337       13.3832563773
 Si        18.6864288333       21.6178654923       18.7101246736
 Si        18.6794809371       21.6261588652       24.1432453286
 Si        19.1810423859       21.1119913629       29.4688564819
 Si        18.6758194166       27.0643739220       13.2444243279
 Si        18.6964632655       26.9331966962       18.6966374147
 Si        18.7442220866       27.1323773285       24.1404512696
 Si        23.6534654221       10.8355012524       18.2104933357
 Si        24.1795955590       16.1429536143       13.3101066726
 Si        24.1462131754       16.1666656924       18.7128730341
 Si        24.1466656665       16.1667946988       24.1520418968
 Si        24.1156719074       21.5743704157       13.2015946517
 Si        24.1321750650       21.6289814800       18.6921251569
 Si        24.1488798846       21.6227030299       24.1809263954
 Si        23.6319002720       22.1159923114       29.4608599968
 Si        24.1148500227       27.1063452190       18.7410457737
 Si        24.1675684602       27.0222969084       24.1830146193
 Si        29.4919110012       16.6692916245       18.2040308455
 Si        29.4501649656       21.1001858546       19.2184013278
 Si        29.4616404342       22.1252322711       23.6359572665
 Si        10.6476819914       16.6346964622       21.9489837266
 Si        10.6714653383       22.0977037501       16.5108600545
 Si        10.6471130886       21.1037986141       20.9472439485
 Si        16.4900430913       10.8508378192       21.9269473300
 Si        15.9731779055       16.1610386722       15.9877522958
 Si        15.9529455930       16.1461656716       21.4327625267
 Si        15.9329073973       16.1195404457       26.8503090638
 Si        16.4827019304       22.0981802178       10.6810930471
 Si        15.9520494820       21.6227313195       15.9751725695
 Si        15.9816897887       21.6262614180       21.4547052423
 Si        15.9972258269       21.5639655544       26.9273888502
 Si        15.9359076243       27.0160724311       15.9427338937
 Si        15.9787082930       27.1333036096       21.3809007625
 Si        21.9345178573       10.8292643584       16.4638818111
 Si        20.9088274901       10.8479810407       20.9155216772
 Si        21.9305105968       16.6469833785       10.6530822443
 Si        21.4161130576       16.1583573028       15.9903993302
 Si        21.4370150757       16.1710668261       21.4466320584
 Si        21.3754118179       16.1935429802       26.9194037929
 Si        20.9152930557       21.0953119254       10.6800698392
 Si        21.4334569106       21.6226175765       15.9960271349
 Si        21.4149751096       21.6179182451       21.4376665629
 Si        21.4176448672       21.6107086917       26.7546623707
 Si        21.3707607045       27.1018506621       16.0087859085
 Si        21.4232486094       26.9342216942       21.4215316007
 Si        21.4435372305       27.0706145165       26.8807631319
 Si        26.8523513014       16.1247522073       15.9473168449
 Si        26.9245915545       16.1910947179       21.3891870905
 Si        26.9138427095       21.5675265378       16.0139408758
 Si        26.7365646676       21.6199185156       21.4389035196
 Si        26.8851179728       21.6340947897       26.8872920887
 Si        26.8637481022       27.0653416560       21.4488345765
 Si        10.6421671839       19.3863006000       19.2152646541
 Si        10.6478223941       18.3584349065       23.6707634294
 Si        10.6705818361       23.8147077373       18.2250332879
 Si        15.9918995595       13.3923435935       18.7504817785
 Si        15.9186518702       13.4406043807       24.2173480817
 Si        15.9946138252       18.9289709167       13.2067078010
 Si        15.9806633720       18.8667515883       18.6958825436
 Si        15.9647233690       18.8840867723       24.1633503329
 Si        16.4782126962       18.3703854749       29.4775916349
 Si        15.9001674471       24.3875650803       13.2670724470
 Si        15.9548813956       24.3400014882       18.7018972338
 Si        15.9586678821       24.3330033835       24.1731718675
 Si        16.4839555532       29.6541931853       18.1912658844
 Si        21.4470813992       13.4442745641       13.2680888605
 Si        21.4189515591       13.5525315917       18.7046200884
 Si        21.3797007090       13.3862251445       24.1296455095
 Si        21.4217764201       18.8833178813       13.3898357603
 Si        21.4186504785       18.8895372576       18.7087119808
 Si        21.4329366116       18.8684015986       24.1431419024
 Si        20.8993142481       19.3997230576       29.4707087940
 Si        21.3701563275       24.3054708507       13.2116978486
 Si        21.4243853829       24.3183009431       18.6944507516
 Si        21.4198062931       24.3416188198       24.1694238580
 Si        21.9078139760       23.8235146946       29.4562270377
 Si        20.9067644691       29.6527535517       19.2108025094
 Si        21.9311102639       29.6572431284       23.6442193420
 Si        26.8702699069       13.4530607854       18.6951923559
 Si        26.8858522608       18.8733087081       13.2459696535
 Si        26.7414799606       18.8861106872       18.7185353269
 Si        26.9139968407       18.9391130443       24.1365340909
 Si        26.9046039895       24.3068535757       18.7520811999
 Si        26.8508224495       24.3931701176       24.2119517098
 Si        13.2418070678       13.4092618301       21.4584133317
 Si        13.2039570626       18.9297614295       16.0159077395
 Si        13.3612235416       18.8889998895       21.4345688385
 Si        13.2472193145       18.8702960313       26.8953642866
 Si        13.2382683734       24.4016706667       15.9190382207
 Si        13.2046538710       24.3093738009       21.3897743572
 Si        18.7408067236       13.3771545312       16.0082835063
 Si        18.6955606537       13.5700262540       21.4361455359
 Si        18.6831610610       13.4371280937       26.8742254920
 Si        19.2153997390       19.3787743789       10.6814553132
 Si        18.6709980376       18.8771384800       15.9961049028
 Si        18.6902227873       18.8821711758       21.4317354092
 Si        18.6929714107       18.8890069387       26.7545753439
 Si        18.1854982887       23.8261814459       10.6730123415
 Si        18.6830895362       24.3366680896       15.9659155171
 Si        18.6608314725       24.3438517198       21.4604189449
 Si        18.7381804769       24.3113412406       26.9202341203
 Si        18.1999803204       29.6557381203       16.4613447651
 Si        19.1925706357       29.6506506973       20.9280205566
 Si        24.1917610123       13.4812759000       15.9513217402
 Si        24.1149715713       13.3919366167       21.3844501563
 Si        23.6580572135       18.3853418439       10.6511970018
 Si        24.1587894239       18.8914446724       15.9792104997
 Si        24.1309758501       18.8788247485       21.4573416218
 Si        24.1115307826       18.9252942371       26.9403477557
 Si        24.1303464245       24.3297268346       15.9869899206
 Si        24.1481537344       24.3380586270       21.4370091490
 Si        24.2027897952       24.4017512129       26.8820409249
 Si        23.6566324406       29.6582981285       21.9219971815
 Si        29.4760424591       18.4071646249       16.4735743373
 Si        29.4567930504       19.3946712009       20.9434001099
 Si        29.4564652574       23.8490979122       21.9129289698
  C        21.4483216268        9.1729359184       15.9079411823
  C        21.0707558686        8.1052926160       15.4400241001
  C        20.5615591664        6.8615262958       14.8803934252
  C        19.1313844864        7.0035605609       14.3129665590
  H        21.2454076219        6.5100145981       14.0905608095
  H        20.5787263721        6.0832625941       15.6610941244
  H        19.1135831197        7.7023318333       13.4670374124
  H        18.4493292147        7.3962793237       15.0782343636
  H        18.7494545980        6.0342343961       13.9695186424
  C        10.6515368092       23.8781874471       13.6193930802
  C         9.7698188807       24.3810223276       12.9326359641
  C         8.7216101583       24.9742076006       12.1139353698
  C         8.5831001296       24.3260161196       10.7205548635
  H         7.7631511611       24.8951726700       12.6531172600
  H         8.9201130976       26.0538305062       12.0080729755
  H         8.3316338452       23.2611638239       10.8062134382
  H         9.5243489336       24.3991354736       10.1619125037
  H         7.7945134651       24.8209923820       10.1397570722
  C        29.3123724851       16.4904951741       13.5896929662
  C        30.0313680407       15.8178618150       12.8604454778
  C        30.8660917192       14.9726619824       12.0190066472
  C        30.2683053120       13.5651520240       11.8012203782
  H        31.0229729269       15.4699668496       11.0481765675
  H        31.8639934217       14.8909222687       12.4811730667
  H        29.3060765377       13.6255489878       11.2767733382
  H        30.0885294430       13.0697254185       12.7629827479
  H        30.9479487996       12.9407416100       11.2074663056
  C        27.9932261511       15.1428277931       22.4165656301
  C        28.7400024871       14.4465330367       23.0945748313
  C        29.6391795559       13.6478535424       23.9151191929
  C        30.0992543936       14.3787796090       25.1955570224
  H        29.1382941633       12.7023053838       24.1788832865
  H        30.5148406075       13.3657507757       23.3071936201
  H        29.2390999666       14.6413578169       25.8248238142
  H        30.6261155074       15.3086685507       24.9474715140
  H        30.7754285495       13.7438012926       25.7823749388
  C        29.3393147492       26.7160035585       23.8064665364
  C        30.0818052806       27.4038259143       24.4963207523
  C        30.9319643322       28.2288180492       25.3417606122
  C        30.7707343175       29.7417087337       25.0814292847
  H        30.6947634427       28.0030726161       26.3951051969
  H        31.9833848155       27.9306879753       25.1990668964
  H        29.7256095094       30.0498338986       25.2129262203
  H        31.0653298607       29.9963904353       24.0560050163
  H        31.3915556948       30.3250360492       25.7737134153
  C        22.4045512921       12.3111570924       25.1742989145
  C        23.0862874284       11.5667753181       25.8699319397
  C        23.8904998164       10.6567919873       26.6732279310
  C        24.0183086113        9.2498734352       26.0488475262
  H        24.8904153802       11.0980007904       26.8159486643
  H        23.4456946982       10.5834372742       27.6793299331
  H        24.4842652885        9.3034790737       25.0566827929
  H        23.0324462898        8.7837075404       25.9300115079
  H        24.6327780849        8.5989743292       26.6838128304
  C        24.1650219868        9.1813576040       18.7450898021
  C        24.5768780126        8.1029530024       19.1565584880
  C        25.0548125661        6.8167181651       19.6442132676
  C        24.1167493152        5.6430583948       19.2894632078
  H        26.0611421831        6.6327845969       19.2336312454
  H        25.1829283233        6.8782015778       20.7375624770
  H        24.0020945756        5.5503171563       18.2023291363
  H        23.1194673153        5.7973941449       19.7189804115
  H        24.5169505473        4.6967821166       19.6765716793
  C         8.9875645467       18.9352893598       18.6266926799
  C         7.9071786092       18.6172434627       18.1438863296
  C         6.6188312784       18.2234683033       17.5919279610
  C         5.4204426893       18.6555187402       18.4637002638
  H         6.5181468935       18.6432835137       16.5779093653
  H         6.6106225410       17.1283230278       17.4647487663
  H         5.3635811562       19.7483136520       18.5367347816
  H         5.5173634571       18.2589030049       19.4826574197
  H         4.4781241150       18.2878362726       18.0371607278
  C        12.1891282952       12.3358834541       20.4408150768
  C        11.4826440691       11.6042254571       19.7581715574
  C        10.6591172694       10.7532552150       18.9113714192
  C        11.3453343470       10.3798362797       17.5790946751
  H        10.3946201722        9.8379930356       19.4658022319
  H         9.7049501600       11.2704370265       18.7135510351
  H        12.2567584187        9.7958228375       17.7591490104
  H        11.6373626103       11.2812488471       17.0250040437
  H        10.6729241650        9.7857491645       16.9477753163
  C        31.1486623299       16.1479418759       18.7196838180
  C        32.2283622593       15.7232638493       19.1126264260
  C        33.5064595397       15.2106822177       19.5852017875
  C        34.3367892829       14.5107344531       18.4889075553
  H        34.0872421330       16.0430092782       20.0153287581
  H        33.3192575487       14.5123259127       20.4177280834
  H        34.5597099072       15.2029517287       17.6672741220
  H        33.7892298169       13.6579591501       18.0685863580
  H        35.2870513147       14.1432688659       18.8978749125
  C        31.0978980895       24.3914796432       21.3657757965
  C        32.1412651328       24.8679409896       20.9338747769
  C        33.3824551568       25.4295582999       20.4193305081
  C        34.6140446176       24.5366413062       20.6803150876
  H        33.2677761385       25.6048666628       19.3369412658
  H        33.5345128171       26.4240313642       20.8701396404
  H        34.4882112416       23.5519686573       20.2133275305
  H        34.7621258696       24.3800971937       21.7559598270
  H        35.5215734618       24.9993822367       20.2716437451
  C        13.6110969141       23.8754253935       10.6438212294
  C        12.9611397146       24.3657526116        9.7270321853
  C        12.2037134843       24.9393055435        8.6234746110
  C        12.2363541795       24.0834280618        7.3388409408
  H        11.1599871654       25.0924239906        8.9439860025
  H        12.5977614885       25.9459424893        8.4060964286
  H        11.8262808329       23.0815331957        7.5233743954
  H        13.2644525271       23.9623411778        6.9761766406
  H        11.6441868566       24.5562484329        6.5458093809
  C        26.5358062720       26.8363970182       26.5932498968
  C        27.2009272660       27.5565377787       27.3268091533
  C        27.9942895490       28.4182415503       28.1894969110
  C        27.7804923008       29.9217784462       27.9142023672
  H        27.7518243572       28.1886951502       29.2403710487
  H        29.0591604435       28.1605657960       28.0620817301
  H        26.7374115596       30.2077770994       28.1007707199
  H        28.0069865961       30.1625986169       26.8682640875
  H        28.4276890088       30.5327715489       28.5569651869
  C        14.9001093227       25.3253351903       25.2638799121
  C        14.1946330993       25.9998833395       26.0043911512
  C        13.3457857946       26.8354467303       26.8405813889
  C        12.0400906177       27.2619148440       26.1356910014
  H        13.1146433943       26.3000891566       27.7761617061
  H        13.9217287109       27.7267219885       27.1408015141
  H        11.4111243081       26.3908487309       25.9151331443
  H        12.2624799015       27.7583533328       25.1826952326
  H        11.4654985006       27.9542456017       26.7636172029
  C        18.6034466169        9.1899077290       18.7587327620
  C        18.1240524546        8.1096103285       18.4349579004
  C        17.5850542810        6.8205879086       18.0247890136
  C        18.5837095718        5.6572638732       18.2045974503
  H        16.6614767018        6.6170265846       18.5905809954
  H        17.2785557543        6.8897236528       16.9678717592
  H        18.8222977605        5.5058023406       19.2642450567
  H        19.5238200234        5.8693122947       17.6801769137
  H        18.1675077104        4.7223028163       17.8073735234
  C        18.7450699914       16.1567062449       31.1296042734
  C        19.1609928773       15.7536718297       32.2097343219
  C        19.6641032057       15.2890142474       33.4949837231
  C        19.7868216745       16.4121728584       34.5470208599
  H        19.0020917622       14.4913020534       33.8697355905
  H        20.6465323609       14.8140510347       33.3368740970
  H        18.8105660023       16.8735629632       34.7421671140
  H        20.4650470876       17.2012199158       34.1987852148
  H        20.1755396987       16.0154579359       35.4932878856
  C        17.7666252886       28.2430847072       25.1918226606
  C        17.1136236211       29.0151837677       25.8834893747
  C        16.3372716204       29.9270071227       26.7113879912
  C        16.9086977037       30.1041562898       28.1341664844
  H        16.2771042335       30.9042190330       26.2040713522
  H        15.3007316757       29.5544110745       26.7692409614
  H        17.9242662978       30.5169436851       28.0983101189
  H        16.9584243060       29.1407656547       28.6575006738
  H        16.2800548317       30.7846782431       28.7225140166
  C         8.9999101589       21.6555673901       21.4651718229
  C         7.9319019762       22.0886996011       21.8824329893
  C         6.6647466815       22.5852528283       22.3999942060
  C         5.7537897194       21.4680317464       22.9529251978
  H         6.8743744904       23.3241490809       23.1911158865
  H         6.1435756721       23.1390386683       21.6022492915
  H         6.2506779742       20.9256299618       23.7669164025
  H         5.5089446559       20.7404280007       22.1687739991
  H         4.8162826959       21.8880231412       23.3392931309
  C        26.5687860498       23.8890321638       29.4232127392
  C        27.3706078643       24.3777401549       30.2100413731
  C        28.3248312766       24.9681628593       31.1378090951
  C        27.7000683247       25.4179394789       32.4750386061
  H        29.1284321098       24.2377609846       31.3292704786
  H        28.8098590250       25.8278803297       30.6454645436
  H        27.2443262251       24.5695729451       33.0009775167
  H        26.9123124601       26.1630332825       32.3067878987
  H        28.4609772163       25.8615572617       33.1294767057
  C        13.6407296849       29.5176001323       16.2624736523
  C        12.9501229653       30.2543767685       15.5680702000
  C        12.1107540588       31.1346374522       14.7679472570
  C        11.2050066274       32.0489851435       15.6216256770
  H        12.7547972968       31.7465268206       14.1151917776
  H        11.4943562027       30.5184065973       14.0925180231
  H        11.8060120793       32.6897191274       16.2793616723
  H        10.5371272364       31.4529128112       16.2568162822
  H        10.5895356382       32.6940488883       14.9823209334
  C        16.3925110364       10.9251185539       26.5717821003
  C        15.8352963757       10.1557037248       27.3455877314
  C        15.1604835007        9.2391709198       28.2537113727
  C        14.7428570445        7.9098391105       27.5902389826
  H        15.8233989981        9.0352885536       29.1107644108
  H        14.2732939776        9.7450504722       28.6704249530
  H        15.6191223139        7.3632352917       27.2195126754
  H        14.0834998538        8.0937597999       26.7331971484
  H        14.2125485734        7.2681169189       28.3053806339
  C        26.5539976083       10.9582012563       16.3881573171
  C        27.3442430945       10.1720905480       15.8788268714
  C        28.2893453362        9.2305762748       15.2952293117
  C        27.7884381808        7.7704963177       15.3009397775
  H        28.5190640685        9.5444576317       14.2633784466
  H        29.2396603867        9.3015975576       15.8504677901
  H        26.8639376374        7.6717487755       14.7188664967
  H        27.5744482063        7.4359757691       16.3243119187
  H        28.5425823115        7.1005231477       14.8690331793
  C        24.1463498990       18.9208168142        8.9890143578
  C        24.5423278614       19.3349930662        7.9056594335
  C        25.0554810578       19.8220119124        6.6328946771
  C        26.4427655617       19.2428984760        6.2781068566
  H        24.3318526157       19.5821414089        5.8367932107
  H        25.1068456105       20.9226441816        6.6706201281
  H        26.4025016346       18.1489461609        6.2043768485
  H        27.1810095602       19.4977898846        7.0497625419
  H        26.7961402492       19.6402554128        5.3181833310
  C        23.6835388439       26.7168046634       29.4669934969
  C        24.1890311378       27.4066976777       30.3449493997
  C        24.7970982760       28.2307023012       31.3798487267
  C        24.6912669265       29.7457078458       31.1061337182
  H        24.3273917603       27.9901766582       32.3480305632
  H        25.8571875298       27.9447765290       31.4824619319
  H        23.6427647904       30.0589705409       31.0334379334
  H        25.1845156112       30.0075037343       30.1611444820
  H        25.1666683019       30.3185780142       31.9130281664
  C        31.0842851600       19.0708088668       15.9642076539
  C        32.0552466260       19.6821530920       15.5336307400
  C        33.1779909267       20.4240573273       14.9779822085
  C        33.3743513941       20.1806175825       13.4651511818
  H        33.0139289717       21.4978660452       15.1652164045
  H        34.0968372427       20.1597996578       15.5265354452
  H        32.4716680150       20.4619646049       12.9062886927
  H        33.5734790630       19.1215301450       13.2613001907
  H        34.2162868846       20.7712069385       13.0827466640