963
 i =      125, E =     -2416.7842947693
 Si        14.7216782381       14.6407844520       20.1323734843
 Si        14.6673329336       14.6257173444       25.6362792430
 Si        14.6783942108       20.0655677274       14.6530064974
 Si        14.8117048646       20.0986543363       20.1124698265
 Si        14.6913167275       20.1388571013       25.5760256118
 Si        14.6401740686       25.5989949815       14.5956829680
 Si        14.6760192075       25.5624029387       20.0365645775
 Si        20.2035298024       14.6555395665       14.6884701016
 Si        20.1727839260       14.7651305252       20.1401933952
 Si        20.1563925552       14.7015630280       25.5693506382
 Si        20.1583630663       20.1072558820       14.7483096612
 Si        20.1619017194       20.1308686194       20.1009029800
 Si        20.1711256359       20.1404620256       25.4975782586
 Si        20.1270725386       25.5883968551       14.6000598824
 Si        20.1454889590       25.4886852571       20.1116122777
 Si        20.1356409240       25.5798123159       25.5318771581
 Si        25.6233248209       14.6414508155       14.6845457464
 Si        25.6315880698       14.6996941623       20.1017581281
 Si        25.6483654818       20.1380920961       14.5907586937
 Si        25.5287556342       20.1340397631       20.1115048802
 Si        25.6195197499       20.1707801325       25.5566092679
 Si        25.6225363883       25.6122925857       20.1036906061
 Si        25.6635659601       25.6612598718       25.5989455704
 Si        14.7447983832       12.0057326553       22.8715223525
 Si        14.6683902095       17.3647034444       17.3967697554
 Si        14.7434466328       17.3786051788       22.8678627562
 Si        14.7342430094       17.3667101512       28.3431148325
 Si        14.7410754588       22.7850970664       11.9861278426
 Si        14.6988620915       22.8683508275       17.2971721264
 Si        14.6754955985       22.8246323444       22.8163386243
 Si        14.6957850066       28.2721115133       17.3130579191
 Si        20.2542573610       11.9738522192       17.5058714230
 Si        20.0714294827       11.9643528600       22.7727230547
 Si        20.2403884492       17.4661360699       11.9692170661
 Si        20.1684621206       17.3818969092       17.3978499788
 Si        20.1738227179       17.4137642833       22.8468521655
 Si        20.0561307025       17.4597472260       28.2700264059
 Si        20.0664993397       22.7122159543       11.9045491165
 Si        20.1569610865       22.8444278269       17.3611928103
 Si        20.1413769750       22.8651074578       22.8368004749
 Si        20.2654568563       22.8177459611       28.2693004694
 Si        20.0470637254       28.2832049140       17.4191173177
 Si        20.2198341983       28.2972404584       22.7380592473
 Si        25.6602740417       11.9017117756       17.4206541779
 Si        25.5565800235       17.3415974911       11.9847867630
 Si        25.6106830710       17.3959869069       17.3397599094
 Si        25.6577050935       17.4266096393       22.8379813132
 Si        25.6104336602       22.8391219435       17.3934131253
 Si        25.5654255816       22.9028511140       22.8609338213
 Si        25.5418098716       22.8681390078       28.2611196084
 Si        25.6050406220       28.3496502350       22.8177143332
 Si        11.9646202521       17.4558334176       20.2067059478
 Si        12.0119472959       17.4095101767       25.4995079373
 Si        11.8990342360       22.7877528697       14.6562566977
 Si        12.0189885316       22.7243478058       20.0241598558
 Si        17.5144409111       11.9172105951       20.1935525837
 Si        17.4122507097       11.9235499194       25.5685899410
 Si        17.4505256056       17.3693106248       14.6466481777
 Si        17.4375000496       17.3853594133       20.1212054599
 Si        17.3982811340       17.3848352813       25.5207938926
 Si        17.4010826488       22.8353223723       14.6669468401
 Si        17.4165264457       22.8498539121       20.1049489178
 Si        17.4301620734       22.8508531496       25.6388350883
 Si        17.3684564781       28.2166164513       14.6986941687
 Si        17.5091209368       28.2718673673       20.0079349904
 Si        22.9455020733       11.8753569959       14.7157252837
 Si        22.8249138392       11.9989659628       20.0442287861
 Si        22.9194184938       17.3664290560       14.6993307602
 Si        22.8989779603       17.3931201592       20.1069950877
 Si        22.8859522304       17.4140170389       25.6345909498
 Si        22.8773213570       22.8156634456       14.5978482192
 Si        22.8786065573       22.8631183147       20.1053781409
 Si        22.9128770288       22.8980073507       25.5202253075
 Si        22.7854532302       28.3000047751       20.1821730464
 Si        22.8725496127       28.2721638041       25.4723565663
 Si        28.3781980945       17.3597473068       14.6700868419
 Si        28.3500213761       17.5070377681       20.0215674880
 Si        28.2883180810       22.8078645231       20.2146679219
 Si        28.3384970562       22.8865307084       25.4828548918
 Si        12.0343047284       14.7545482132       22.8559802798
 Si        12.0524851136       20.1543524441       17.5050104610
 Si        11.9763526681       20.0205927919       22.7165577104
 Si        11.9136188533       25.5428953674       17.3123952131
 Si        17.4838903485       14.6000346105       17.4271383485
 Si        17.4205461684       14.6855464551       22.8711253571
 Si        17.4126797818       14.7620626269       28.2721520304
 Si        17.5307508223       20.1421392557       11.9205743776
 Si        17.4223256546       20.1040408046       17.3828744331
 Si        17.4481443793       20.1409630460       22.8524838280
 Si        17.4914891307       20.0383119050       28.2558145652
 Si        17.3362579542       25.5031733191       11.8989818233
 Si        17.4128782433       25.5118270057       17.3544299105
 Si        17.4109993013       25.6394527981       22.8470537655
 Si        22.9400282579       14.6542603550       11.9170389824
 Si        22.9479574927       14.6644199060       17.3586395365
 Si        22.8938263693       14.6601939010       22.8579170490
 Si        22.7991343456       19.9989130616       11.9480766666
 Si        22.8984395011       20.1172563014       17.3699446573
 Si        22.8831719623       20.1241657446       22.8370759777
 Si        22.8115651327       20.2337878890       28.3051126364
 Si        22.8242323565       25.6126568335       17.3734055139
 Si        22.9159207115       25.5748287619       22.8461983436
 Si        22.9051186482       25.5277196135       28.2557401432
 Si        28.3350571606       14.7397004157       17.3987748874
 Si        28.3406105746       20.0649004021       17.4541637724
 Si        28.3262437761       20.2528419861       22.7638706985
 Si        28.2963483668       25.5408984679       22.8404623721
 Si        13.3104171489       16.0424889035       18.8277720369
 Si        13.4130004989       16.0043274584       24.2601422222
 Si        13.2939697351       21.4013221494       13.2875016198
 Si        13.5109524325       21.4720635849       18.7446650299
 Si        13.2880510745       21.4135889757       24.1272793487
 Si        13.2840259810       26.9398664804       18.7102436618
 Si        19.3220810799       10.6874040966       19.2600291435
 Si        18.3131804921       10.7018975330       23.7363526832
 Si        18.8698633447       16.0407257979       13.2884299617
 Si        18.7998077261       16.0414372696       18.7586120278
 Si        18.7974696546       16.0477578632       24.1923610641
 Si        18.2863580827       16.5519974777       29.5666357956
 Si        18.7927675499       21.4435137356       13.3996129537
 Si        18.7883261629       21.4864910541       18.7362511041
 Si        18.7851182922       21.5193276006       24.2144632516
 Si        19.3032303372       21.0069008654       29.4466133832
 Si        18.7347775835       26.9257065181       13.2187783807
 Si        18.7940551660       26.7979936983       18.7259425451
 Si        18.7999742219       27.0429608161       24.1965339194
 Si        23.8035809858       10.6943013663       18.3323670490
 Si        24.2613598749       15.9602864214       13.3572707693
 Si        24.2702032903       16.0456450031       18.7248399263
 Si        24.2544470196       16.0712273557       24.2132318549
 Si        24.2322070214       21.4585112072       13.1810069371
 Si        24.2178381396       21.4969271909       18.7402510363
 Si        24.2400027784       21.5062568349       24.1863261146
 Si        23.7589045760       21.9975595278       29.5630393577
 Si        24.1707979018       26.9586338470       18.7878857875
 Si        24.3184939240       26.9275025440       24.1985806883
 Si        29.5800687975       16.5882482205       18.2228206102
 Si        29.5120209330       21.0315427979       19.2694994691
 Si        29.6175021487       22.0092966084       23.6850013434
 Si        10.7077241242       16.5165688931       21.9912286945
 Si        10.8038131420       21.9135216725       16.5676563664
 Si        10.7242741519       20.9632381356       20.9397074719
 Si        16.5742279361       10.7562674154       22.0343549073
 Si        16.1182474000       16.0025404691       16.0746267636
 Si        16.0756742782       16.0229902646       21.4915932673
 Si        16.0176798552       16.0377953736       26.8914546595
 Si        16.5247671422       21.9011372434       10.7016454516
 Si        16.0496279534       21.4489711001       16.0007269120
 Si        16.0946755519       21.4850388370       21.4856545656
 Si        16.0443953319       21.4796565666       27.0074025461
 Si        16.0053487173       26.8280635212       16.0044746590
 Si        16.0787338777       26.9470170305       21.3716069735
 Si        22.0605097437       10.7450375852       16.6078675619
 Si        21.0307635320       10.7616917505       20.9776228357
 Si        22.0235411575       16.5085539543       10.7567511984
 Si        21.5545339658       16.0244082934       16.0469747542
 Si        21.5527471585       16.0613686087       21.5062475921
 Si        21.5010219713       16.0384212478       27.0037430757
 Si        21.0454160102       20.9444522050       10.6535022073
 Si        21.5410283762       21.4868887188       16.0279763423
 Si        21.5123932433       21.4966309773       21.4754345688
 Si        21.5431181735       21.5178108516       26.8091610934
 Si        21.4692603917       27.0023820570       15.9906522158
 Si        21.5099443317       26.8217073799       21.4653185235
 Si        21.5336558046       26.9080688471       26.8813398215
 Si        26.9684829382       16.0095503901       15.9789777437
 Si        27.0264901857       16.1020647787       21.4219890537
 Si        26.9945641441       21.4533664472       16.0616498132
 Si        26.8282527372       21.5111871443       21.4863215502
 Si        26.9784596556       21.5399366252       26.9042087629
 Si        27.0082235505       26.9858846019       21.4369209952
 Si        10.7278449199       19.2206912125       19.2226730211
 Si        10.7214179180       18.2803276405       23.7092684851
 Si        10.7912156738       23.6635077640       18.2449851674
 Si        16.0883680538       13.2232983025       18.7815482832
 Si        16.0514550489       13.3586625078       24.2792556578
 Si        16.1188319742       18.7646482107       13.2631797746
 Si        16.0861617718       18.7171060170       18.7317463545
 Si        16.0661187259       18.7860575663       24.2009257949
 Si        16.5579845364       18.2967997019       29.5796094773
 Si        16.0081289667       24.2145844605       13.3422996199
 Si        16.0484169611       24.1801582331       18.7074084038
 Si        16.0737399594       24.1810988777       24.1886510138
 Si        16.5460883293       29.4469472278       18.2077537718
 Si        21.5903100376       13.3027230085       13.3519995183
 Si        21.5357069441       13.4615479881       18.7677274152
 Si        21.4670305955       13.2925835089       24.1721853709
 Si        21.5237377837       18.7392818506       13.4391111447
 Si        21.5318882897       18.7602082724       18.7463269248
 Si        21.5448956412       18.7559165136       24.2083527180
 Si        20.9855683090       19.2708909966       29.4641799484
 Si        21.4428605316       24.1312393512       13.2401799733
 Si        21.5094524219       24.1934118829       18.7288504383
 Si        21.5219909754       24.2316483369       24.1796464635
 Si        22.0381120649       23.7372851440       29.5557327350
 Si        20.9743896933       29.4982218627       19.2343225336
 Si        22.0104297437       29.5516982052       23.6689912622
 Si        27.0159632800       13.3157870817       18.7999398893
 Si        27.0183567662       18.7305839465       13.2609931366
 Si        26.8637134650       18.7815964429       18.7407409100
 Si        27.0171463516       18.8441957337       24.1659402792
 Si        26.9804121661       24.1802559422       18.7836087865
 Si        26.9193340037       24.2694014953       24.2365892182
 Si        13.3176864362       13.3049266702       21.4779792828
 Si        13.2701004416       18.7258312998       16.0431938816
 Si        13.4632451553       18.7368823639       21.4605906557
 Si        13.3727570103       18.7363501277       26.9326909767
 Si        13.2959136374       24.2366922444       15.9127203084
 Si        13.3198114226       24.1596549673       21.3988409731
 Si        18.8555149777       13.2365796593       16.0402856347
 Si        18.7923282351       13.4202816777       21.4676359721
 Si        18.7719150602       13.3517107240       26.9088505862
 Si        19.3098118878       19.2025521780       10.6474671610
 Si        18.7887346733       18.7289284241       16.0452511161
 Si        18.8035727104       18.7700024150       21.4768267352
 Si        18.7903640749       18.7583105904       26.7910063888
 Si        18.2285066797       23.6413235750       10.7316406364
 Si        18.7919122628       24.1974823977       15.9842608108
 Si        18.7530282906       24.2165494313       21.4938429365
 Si        18.8267248113       24.2322950981       26.9950265641
 Si        18.2552918184       29.5242439441       16.4820767755
 Si        19.2657645303       29.5479740422       20.9589234078
 Si        24.3374113476       13.2594771111       16.0180104922
 Si        24.2301741550       13.3151492840       21.4398299225
 Si        23.7542278927       18.2130541364       10.7057008950
 Si        24.2808850072       18.7814456648       15.9871395010
 Si        24.2386705270       18.7517289962       21.4850242822
 Si        24.2251780741       18.8611067953       26.9642921954
 Si        24.1958234424       24.1968201394       16.0372376690
 Si        24.2495406761       24.2389506711       21.4572446153
 Si        24.2983162504       24.2752800002       26.8585107967
 Si        23.7420555421       29.5563317000       21.9486167626
 Si        29.5951101399       18.3051153866       16.4848180946
 Si        29.5413100939       19.3132894423       20.9671048988
 Si        29.5868890073       23.7503619105       21.9547120116
  C        27.9037826189       28.3231014124       18.9436463675
  C        28.2692412694       28.0253447577       20.4073360042
  C        28.9975049092       29.0996902307       18.1912666540
  H        26.9576075092       28.8808490348       18.8929586584
  H        27.7117627751       27.3762111264       18.4178372653
  C        28.7124988350       29.2168781991       16.6867917209
  H        29.9662157223       28.6019085726       18.3460552552
  H        29.1070083592       30.1010658156       18.6341263998
  H        28.6666117006       28.2256637504       16.2145433111
  H        27.7487806595       29.7099774786       16.4951920576
  H        28.4519686917       28.9614620822       20.9583676552
  H        29.2229623971       27.4764304398       20.4403350279
  H        29.4871423701       29.7954019482       16.1655327393
  C        13.4925199802       30.9004870997       16.7098486813
  C        13.6850621592       29.4679642876       16.1843468205
  C        12.6668624271       31.7760896459       15.7512583934
  H        14.4757224516       31.3665826207       16.8696578436
  H        13.0157500252       30.8887114829       17.7016849936
  C        12.5945096998       33.2455569937       16.1912053365
  H        11.6532503176       31.3589259780       15.6588400043
  H        13.1016408125       31.7107152385       14.7428991497
  H        12.1572443834       33.3460335994       17.1938371227
  H        13.5946673522       33.6988420695       16.2277034852
  H        14.2012413445       29.5035905874       15.2129728438
  H        12.7072301845       29.0019635692       15.9880060773
  H        11.9852283339       33.8484378238       15.5037266254
  C        12.1544195391       13.8020032124       26.9712017745
  C        13.6060357048       13.3983134070       26.6743403459
  C        11.4078665674       12.7962843329       27.8614461852
  H        11.6083133330       13.9266193603       26.0247688279
  H        12.1272100999       14.7878615380       27.4517126309
  C         9.9701416885       13.2438259712       28.1662647864
  H        11.9637096600       12.6611861807       28.8015775337
  H        11.4022364348       11.8082880698       27.3769560872
  H         9.9584558378       14.2115251805       28.6873775655
  H         9.3853526080       13.3672793844       27.2443314167
  H        13.6175514742       12.4448621878       26.1241429501
  H        14.1559801853       13.2088480394       27.6098646836
  H         9.4391664732       12.5214841395       28.8010372638
  C         7.7679476145       16.7668634740       21.6377455189
  C         8.9808495321       15.8407677398       21.4573374158
  C         6.4737483105       16.1940072730       21.0371095111
  H         7.9675569502       17.7527866534       21.1917988976
  H         7.6121173104       16.9552074697       22.7089393046
  C         5.2468895193       17.0706383032       21.3260885161
  H         6.3103308257       15.1796258309       21.4299313568
  H         6.6014378493       16.0709921209       19.9508702495
  H         5.0754137587       17.1708734808       22.4069432205
  H         5.3745562238       18.0845652536       20.9214657755
  H         9.0823462847       15.5442158769       20.4013867657
  H         8.8167432002       14.9047908612       22.0120754005
  H         4.3314026312       16.6538908088       20.8842952994
  C         7.8485505514       19.6350589371       18.7162265748
  C         9.0159310619       18.6515651269       18.5403952853
  C         6.5490690323       19.1668126533       18.0405201213
  H         8.1263721748       20.6244733811       18.3224577564
  H         7.6584702494       19.7889929232       19.7880156294
  C         5.3703783725       20.1131377441       18.3111786829
  H         6.3028097565       18.1536818587       18.3928766717
  H         6.7160489679       19.0706350952       16.9577087249
  H         5.1590393862       20.1875614028       19.3871516799
  H         5.5823014532       21.1297317773       17.9532025260
  H         9.1719415963       18.4391706306       17.4711333841
  H         8.7679650291       17.6857453468       19.0043686877
  H         4.4490473131       19.7735723970       17.8185229719
  C        18.2841474830       10.7134626619       14.6647963928
  C        17.7661829693       12.1434317423       14.8920656504
  C        17.3529802678        9.8670505523       13.7812660217
  H        18.4126435742       10.2119985478       15.6370240497
  H        19.2913110731       10.7425456045       14.2218777216
  C        17.7997283817        8.4022536137       13.6739859321
  H        17.2905691293       10.3184872098       12.7803939195
  H        16.3317157579        9.9145453799       14.1893351801
  H        18.8087401982        8.3184828369       13.2482329805
  H        17.8266109810        7.9214697451       14.6623801281
  H        16.7518290626       12.1106975974       15.3165564368
  H        17.6706540942       12.6748751797       13.9324367383
  H        17.1220731266        7.8134839042       13.0408160750
  C        13.5024436038       22.8002758255       27.8085030977
  C        14.9637755986       22.5366585800       28.2054142589
  C        12.7389528458       23.6112448224       28.8697055276
  H        12.9829404306       21.8454400422       27.6433376169
  H        13.4611615731       23.3270060345       26.8443531635
  C        11.2437747231       23.7548819183       28.5496164704
  H        13.2009612667       24.6048813231       28.9727464265
  H        12.8631759709       23.1279996863       29.8504153445
  H        11.0838190475       24.2474410339       27.5806863535
  H        10.7544671851       22.7724557537       28.4975414613
  H        14.9958461917       22.0348860873       29.1850102107
  H        15.4836049238       23.4946558679       28.3456501756
  H        10.7170109969       24.3453168075       29.3116066748
  C        20.9837656934       27.5947173874       11.4323062951
  C        19.7216398155       28.1513869387       12.1101344192
  C        21.7716647719       28.6523961061       10.6402016403
  H        20.7241188451       26.7517285211       10.7740866999
  H        21.6448686886       27.1655972739       12.1978520952
  C        23.1556817102       28.1522448615       10.2008534584
  H        21.8882114878       29.5525143513       11.2628374481
  H        21.1866014969       28.9740521615        9.7663144474
  H        23.7799538291       27.9068695460       11.0723433661
  H        23.0833941375       27.2419894779        9.5900336208
  H        19.0187553941       28.5492384136       11.3606830486
  H        19.9888863482       29.0122014762       12.7429455801
  H        23.6970498024       28.9042646793        9.6110932638
  C        23.8466278851       13.7509268328        9.2398062988
  C        24.0348629913       13.5705073764       10.7552836578
  C        24.7241320539       12.7792695205        8.4309876472
  H        24.0801981708       14.7865891311        8.9504772399
  H        22.7908125354       13.6039237425        8.9695036231
  C        24.5369631008       12.9091033450        6.9130569113
  H        24.5022039447       11.7488238054        8.7477170621
  H        25.7798713291       12.9423471420        8.6946869963
  H        23.4966382794       12.7135220406        6.6199718761
  H        24.7891916429       13.9185850711        6.5614959024
  H        25.0862308276       13.7545148249       11.0247162404
  H        23.8358449952       12.5219632385       11.0190134512
  H        25.1724465247       12.2007749910        6.3637024433
  C        12.5350851210       16.3558646550       14.4495335151
  C        12.0057644964       17.6606130407       15.0654127545
  C        11.4638178094       15.5724858909       13.6720830551
  H        12.9361732077       15.7166153662       15.2496509868
  H        13.3899849583       16.5640596454       13.7884629923
  C        11.9639547186       14.2019268970       13.1923398994
  H        11.1230788337       16.1721736106       12.8150743982
  H        10.5775710873       15.4424699836       14.3107832911
  H        12.8476483553       14.2991294127       12.5469131680
  H        12.2532457901       13.5663172579       14.0409027641
  H        11.1901663725       17.4326356471       15.7702201432
  H        11.5590750260       18.3044905988       14.2920186803
  H        11.1962741432       13.6610950194       12.6225278800
  C        16.2761059082       28.0799491110       25.3595326003
  C        17.8050690465       28.2326842345       25.3476902264
  C        15.5729912140       29.0961052742       26.2745525037
  H        15.9997046004       27.0615975452       25.6690491655
  H        15.8846730821       28.1853550260       24.3371433544
  C        14.0423850409       28.9844398679       26.2125456352
  H        15.8856897017       30.1137243468       25.9952841857
  H        15.9199274386       28.9567201684       27.3092706799
  H        13.6717828700       29.1607729304       25.1931239899
  H        13.7006605720       27.9834153719       26.5101370515
  H        18.2078631297       28.1116114930       26.3650129714
  H        18.0716666887       29.2571978687       25.0487263050
  H        13.5503938906       29.7113469191       26.8729658880
  C        15.3424282845       10.6676837722       17.5317783717
  C        14.9308159852       12.1406826883       17.6845290700
  C        14.3596269623        9.8514866490       16.6766077672
  H        15.4253159336       10.2053840078       18.5280349924
  H        16.3515014399       10.5989493846       17.0977978751
  C        14.7313837441        8.3650744286       16.5892242267
  H        14.3086149099       10.2866776809       15.6668215489
  H        13.3467441760        9.9584295492       17.0942922447
  H        15.7210416267        8.2244768984       16.1322152789
  H        14.7655056606        7.9033539483       17.5863191805
  H        13.9212094737       12.1985106736       18.1178894504
  H        14.8552972532       12.6261753429       16.6989571944
  H        14.0076146555        7.7980298859       15.9882450400
  C        23.5583011704       15.5269643290       29.0226551306
  C        22.5275955566       14.8528958128       28.1028976803
  C        24.2663839081       14.5492511517       29.9752763182
  H        23.0762971522       16.3228463767       29.6117745089
  H        24.3131945950       16.0383705523       28.4087006898
  C        25.3468547783       15.2350021820       30.8243104056
  H        24.7122930720       13.7315918734       29.3904656317
  H        23.5198571123       14.0715875513       30.6283414965
  H        26.1320621708       15.6715592982       30.1916988370
  H        24.9251025722       16.0528540612       31.4248339263
  H        21.8047572451       14.2646765276       28.6917043375
  H        23.0235063875       14.1311420470       27.4348955843
  H        25.8324567766       14.5337530385       31.5164455631
  C        25.2698402821       31.3690197896       20.2957545908
  C        24.1958383908       31.3369761481       21.3969895916
  C        25.6647631752       32.7908537526       19.8625603440
  H        24.9153289569       30.8055248160       19.4187400423
  H        26.1685014019       30.8333974906       20.6399195753
  C        26.7740269439       32.8034895865       18.8002091243
  H        25.9864569101       33.3620179039       20.7459206758
  H        24.7749586333       33.3136481108       19.4820309155
  H        27.6847013127       32.3095536928       19.1674298472
  H        26.4628005326       32.2730845792       17.8893487187
  H        23.2776772180       31.8360962822       21.0511591283
  H        24.5355272383       31.8995034492       22.2802989742
  H        27.0493875513       33.8261599654       18.5076410614
  C        18.1336636912        8.0187836017       19.6090123336
  C        18.9480462612        8.9060711476       18.6567270659
  C        17.8812010715        6.6054687529       19.0585751940
  H        17.1678078359        8.4999237855       19.8181650347
  H        18.6390162878        7.9480329497       20.5847828774
  C        16.9982674774        5.7589948539       19.9871629880
  H        18.8438483166        6.1011046702       18.8872658030
  H        17.4100817567        6.6855549856       18.0672542713
  H        17.4543372041        5.6443378351       20.9800288645
  H        16.0154272020        6.2270827406       20.1362471160
  H        18.4249158414        8.9982987049       17.6918110366
  H        19.9185097870        8.4395690701       18.4216256164
  H        16.8261549834        4.7517103276       19.5842062766
  C        20.9819930763       25.7435485124       31.3761125575
  C        21.5308037808       24.3070389918       31.3202033169
  C        20.4128906169       26.1273701681       32.7519721624
  H        20.2000804059       25.8802021450       30.6138693975
  H        21.7790768502       26.4492535186       31.0984060271
  C        19.8770881094       27.5661429542       32.7906517308
  H        21.1901427321       25.9934918770       33.5186595421
  H        19.6112025156       25.4225829045       33.0202775496
  H        20.6659502989       28.2931878581       32.5539509242
  H        19.0718863560       27.7108980747       32.0565671250
  H        20.7835614964       23.5921359548       31.6983209814
  H        22.4049371721       24.2116672212       31.9815439339
  H        19.4727841140       27.8267806284       33.7784958165
  C        29.2404479139       14.9283904010       13.2115436847
  C        29.6431836703       16.3584262760       13.6051427729
  C        30.3448243352       14.1751178738       12.4506107673
  H        28.3204608218       14.9445311924       12.6094400161
  H        28.9839348867       14.3626851205       14.1192284140
  C        30.0109905449       12.6904636577       12.2441661870
  H        31.2910452230       14.2677834091       13.0039500733
  H        30.5224000629       14.6621825160       11.4806610725
  H        29.8878762026       12.1765023330       13.2078756058
  H        29.0723032767       12.5605331723       11.6885409449
  H        29.8655934115       16.9574781691       12.7081177944
  H        30.5851850121       16.3252436440       14.1734263550
  H        30.7989266817       12.1640877320       11.6885415015
  C        11.9333642794       20.8366173723       10.7441577098
  C        12.2672124487       20.2536104398       12.1273382097
  C        11.1152035445       19.8761830732        9.8647829595
  H        12.8684567015       21.0959018947       10.2235096486