911
	Energy:    8778.7212714
Si        14.40267       14.76520       20.04965
Si        14.39984       14.65399       25.37762
Si        14.73136       19.95827       14.76300
Si        14.75124       20.02888       19.99673
Si        14.73852       19.97133       25.30890
Si        14.62674       25.61825       14.59264
Si        14.65976       25.41773       19.81429
Si        20.08029       14.62185       14.83454
Si        19.98186       14.75708       19.97040
Si        19.91893       14.61495       25.25457
Si        19.96215       19.99552       14.78783
Si        19.96276       20.00919       19.99890
Si        19.90984       19.98116       25.26737
Si        19.89110       25.23595       14.52412
Si        20.02024       25.26445       20.04189
Si        19.98288       25.13607       25.43751
Si        25.43459       14.65436       14.78562
Si        25.37649       14.70670       19.91739
Si        25.32485       20.15825       14.77975
Si        25.19762       20.03435       20.01511
Si        25.23426       20.02814       25.31831
Si        25.29067       25.29834       20.02630
Si        25.43223       25.39644       25.49162
Si        14.74075       11.94206       22.64869
Si        14.60267       17.39857       17.26671
Si        14.70101       17.33553       22.64133
Si        14.38042       17.34214       28.02916
Si        14.60253       22.82811       12.02691
Si        14.71872       22.68819       17.31371
Si        14.64586       22.70326       22.57585
Si        14.79846       28.36810       17.39365
Si        20.22596       11.98949       17.34842
Si        19.92356       12.08779       22.60924
Si        20.25019       17.35050       12.11499
Si        19.98727       17.34209       17.37245
Si        19.96017       17.33401       22.63500
Si        19.91742       17.20672       27.88406
Si        19.87621       22.41722       11.98993
Si        19.97032       22.67799       17.33999
Si        19.94114       22.65032       22.66665
Si        20.14589       22.47173       28.13847
Si        20.08918       27.96299       17.46060
Si        20.07211       28.01089       22.66249
Si        25.36918       11.75175       17.43139
Si        25.36944       17.19745       12.18827
Si        25.34579       17.38060       17.31011
Si        25.28761       17.39231       22.62884
Si        25.28029       22.65738       17.39131
Si        25.23249       22.69686       22.72439
Si        25.00381       22.62288       28.06464
Si        25.60840       27.90873       22.76721
Si        11.97509       17.67252       20.04975
Si        11.91447       17.33607       25.04335
Si        11.90383       22.58555       14.50314
Si        12.05712       22.66747       19.80589
Si        17.60336       11.88599       20.03043
Si        17.23827       11.90173       25.31419
Si        17.41167       17.30556       14.69123
Si        17.29288       17.34393       19.97438
Si        17.24826       17.27395       25.24256
Si        17.26804       22.71284       14.71262
Si        17.32659       22.71054       19.98703
Si        17.17242       22.74732       25.21554
Si        17.42342       28.16886       14.91984
Si        17.58312       28.04153       19.90996
Si        22.89041       11.85791       14.70680
Si        22.54428       12.10784       19.90022
Si        22.69560       17.34482       14.77050
Si        22.64744       17.35946       19.99071
Si        22.62361       17.40782       25.30088
Si        22.59997       22.61272       14.67385
Si        22.60916       22.67226       20.01684
Si        22.60365       22.66942       25.29945
Si        22.64221       27.94742       20.26070
Si        22.72978       27.82893       25.29422
Si        28.26636       17.04047       14.51168
Si        27.93267       17.50839       20.01105
Si        27.91163       22.57922       20.12936
Si        27.85778       22.68519       25.48678
Si        11.99682       14.73809       22.74806
Si        12.02857       20.07483       17.43290
Si        12.06232       19.90356       22.61967
Si        11.66460       25.27596       17.17030
Si        17.24086       14.72043       17.42361
Si        17.28919       14.70886       22.60414
Si        17.25636       14.62683       27.81331
Si        17.40638       20.11684       12.08327
Si        17.33294       20.01166       17.34922
Si        17.31009       20.00591       22.63106
Si        17.40922       19.61235       28.02854
Si        17.06696       25.17838       11.74771
Si        17.36533       25.34206       17.33211
Si        17.40244       25.41313       22.64686
Si        22.77605       14.60864       12.00928
Si        22.72091       14.72874       17.37583
Si        22.64717       14.68514       22.61066
Si        22.43163       20.04182       12.06426
Si        22.62669       20.01271       17.36775
Si        22.58965       20.01315       22.65783
Si        22.56398       19.99380       27.94892
Si        22.54726       25.35641       17.33657
Si        22.67092       25.26231       22.73082
Si        22.78897       25.37031       28.02323
Si        28.17538       14.97595       17.41111
Si        27.99557       19.88442       17.44114
Si        27.86123       20.12510       22.60892
Si        28.12384       25.13255       22.91659
Si        13.19728       16.14638       18.70601
Si        13.38303       16.04132       23.93501
Si        13.22151       21.32404       13.09648
Si        13.52046       21.32432       18.65484
Si        13.34996       21.26246       23.93205
Si        13.09671       26.66906       18.63003
Si        19.19571       10.64483       18.99076
Si        18.34291       10.72869       23.62276
Si        18.85585       15.99071       13.35354
Si        18.64015       16.02849       18.66439
Si        18.63209       15.99565       23.94263
Si        18.36336       16.24340       29.27081
Si        18.62298       21.32061       13.54633
Si        18.64849       21.34877       18.67684
Si        18.58781       21.32513       23.98291
Si        19.07790       20.77178       29.26337
Si        18.67612       26.67033       13.11310
Si        18.76439       26.51763       18.65155
Si        18.56837       26.86722       24.01485
Si        23.53558       10.57419       18.30539
Si        23.99702       15.94588       13.51740
Si        24.01713       16.07683       18.66441
Si        23.97604       16.04265       23.92729
Si        23.93068       21.33084       13.29173
Si        23.91114       21.34859       18.68996
Si        23.90187       21.34551       23.98364
Si        23.37803       21.65434       29.35039
Si        23.94671       26.70423       18.80056
Si        24.11923       26.48033       23.98509
Si        29.30030       16.59882       18.48726
Si        29.14766       20.93814       19.12051
Si        29.21617       21.70377       23.99353
Si        10.59940       16.16614       21.72537
Si        10.85293       21.74403       16.36423
Si        10.77121       21.12715       21.10558
Si        16.38472       10.72073       21.73127
Si        15.99319       16.00608       15.98998
Si        15.97253       16.00112       21.28950
Si        15.88930       15.95722       26.52764
Si        16.12955       21.67007       10.76650
Si        16.00362       21.34537       16.03493
Si        16.03503       21.36364       21.30722
Si        15.79269       21.23022       26.88451
Si        16.09126       26.70093       16.06780
Si        16.07295       26.76831       21.13854
Si        21.94655       10.73465       16.53026
Si        20.96365       10.84858       21.03192
Si        22.00334       16.71091       10.79962
Si        21.36174       16.02986       16.09395
Si        21.31074       16.05060       21.30377
Si        21.26441       15.80736       26.74362
Si        20.89227       20.81316       10.67506
Si        21.29823       21.33201       16.06142
Si        21.27108       21.33871       21.33105
Si        21.27893       21.29385       26.49818
Si        21.43457       26.82922       15.97187
Si        21.31979       26.49880       21.42106
Si        21.37349       26.58750       26.67106
Si        26.71220       16.12461       15.97939
Si        26.65973       16.12532       21.28868
Si        26.71750       21.31592       16.16569
Si        26.41955       21.36101       21.37338
Si        26.45552       21.34336       26.74491
Si        26.90020       26.51474       21.19327
Si        10.64659       19.25296       19.11963
Si        10.62554       18.32151       23.42180
Si        10.75128       23.45272       18.13583
Si        15.96775       13.18348       18.63575
Si        16.03544       13.38782       23.90887
Si        16.09900       18.66370       13.36359
Si        15.99304       18.67502       18.64373
Si        16.01456       18.66593       23.95147
Si        16.46818       18.14879       29.45841
Si        15.88571       24.09030       13.50407
Si        16.02018       24.02663       18.61333
Si        15.91720       24.08819       23.90567
Si        16.63833       29.35843       18.23478
Si        21.53236       13.32417       13.53551
Si        21.32073       13.53703       18.64960
Si        21.27249       13.33341       23.89981
Si        21.33115       18.69599       13.57155
Si        21.30151       18.68594       18.68684
Si        21.25604       18.66658       23.95567
Si        20.94355       18.86172       29.09921
Si        21.21516       23.84503       13.25055
Si        21.30214       23.97897       18.67231
Si        21.27262       23.95796       23.97690
Si        21.72593       23.85792       29.34130
Si        21.06875       29.16820       19.07559
Si        21.66847       29.29491       23.68799
Si        26.93465       13.51504       18.68294
Si        26.68674       18.73846       13.25485
Si        26.48119       18.71661       18.71211
Si        26.59134       18.75891       23.95938
Si        26.63652       23.88080       18.76913
Si        26.55257       23.98698       24.04129
Si        13.23082       13.17564       21.40055
Si        13.10307       18.66683       16.03498
Si        13.50272       18.71582       21.33601
Si        13.18485       18.63136       26.41065
Si        13.34639       23.87892       15.99219
Si        13.34185       24.01948       21.15966
Si        18.75287       13.12271       15.94724
Si        18.66479       13.50164       21.29209
Si        18.64606       13.28089       26.57697
Si        18.82667       19.04347       10.65749
Si        18.66118       18.65887       16.07234
Si        18.63320       18.67039       21.30997
Si        18.64145       18.54500       26.46359
Si        18.22000       23.34940       10.80959
Si        18.65146       24.01060       16.01370
Si        18.65060       23.99702       21.34078
Si        18.59165       23.95133       26.76817
Si        18.59151       29.37634       16.42692
Si        19.15181       29.30168       21.00847
Si        24.13101       13.41812       16.20057
Si        23.97914       13.34262       21.21203
Si        23.80214       18.22630       10.73973
Si        23.99236       18.70476       16.05251
Si        23.91015       18.69924       21.33441
Si        23.89822       18.73284       26.65687
Si        23.94612       23.98955       16.03298
Si        23.95009       23.97891       21.34807
Si        23.87429       24.02225       26.59354
Si        23.57526       29.39194       21.75785
Si        29.45766       18.32547       16.50920
Si        29.15319       19.12202       21.05108
Si        29.31230       23.37942       21.80370
C         12.06558       17.34973       15.27229
C         12.36773       16.60139       14.19836
C         11.36305       15.71732       13.50878
H         13.33975       16.67087       13.71528
C         11.97060       14.41966       13.00003
H         10.52125       15.48629       14.17168
H         10.96030       16.27124       12.65211
H         12.33763       13.80018       13.82400
H         12.80393       14.61322       12.31582
H         11.21653       13.84537       12.45079
H         11.05794       17.29240       15.67904
H         12.52465       19.38771       14.91079
C         16.17558       26.54751       10.83984
C         16.53374       27.03016        9.63551
C         15.67242       27.98126        8.85296
H         17.43470       26.66327        9.14519
C         16.27019       28.29831        7.48829
H         14.68630       27.52562        8.69948
H         15.53325       28.91232        9.41239
H         16.46147       27.38487        6.91384
H         17.21608       28.84060        7.59016
H         15.58216       28.92165        6.90826
H         15.25926       26.89358       11.29931
H         16.62435       24.62811       10.45061
C         19.20120       15.86022       30.87496
C         19.33183       14.61468       31.37103
C         19.80317       14.30097       32.76274
H         18.98467       13.76136       30.78780
C         19.97363       12.79989       32.96990
H         20.75070       14.80817       32.97040
H         19.05620       14.66255       33.47994
H         20.73119       12.39024       32.29365
H         19.03344       12.26551       32.78857
H         20.28293       12.58884       33.99839
H         19.48827       16.71872       31.47509
H         17.40603       15.28303       29.85993
C         24.18150       21.23426       30.94966
C         23.54234       21.12680       32.12800
C         24.20371       20.71398       33.41238
H         22.47141       21.31788       32.18719
C         23.20502       20.66839       34.56345
H         24.64524       19.71833       33.29094
H         25.00534       21.41719       33.66326
H         22.37314       19.99040       34.34132
H         22.78776       21.66169       34.76267
H         23.69223       20.31608       35.47788
H         25.24632       21.02099       30.90118
H         22.06070       21.47319       29.97124
C         14.93304       12.16483       17.53248
C         15.21843       10.92694       17.09801
C         14.32692       10.12819       16.18788
H         16.13907       10.43604       17.39485
C         14.70344        8.65104       16.18150
H         13.28278       10.22769       16.49733
H         14.40509       10.51887       15.16850
H         14.68212        8.22354       17.18872
H         15.71236        8.50439       15.78539
H         14.00959        8.08247       15.55430
H         14.00561       12.63089       17.20712
H         15.59285       12.82240       19.98459
C         22.70111       27.80694       15.08383
C         22.85397       29.14047       15.18552
C         23.82335       29.95249       14.37157
H         22.22140       29.73196       15.84560
C         24.31503       31.18758       15.11618
H         24.68250       29.34528       14.06699
H         23.30798       30.28638       13.46407
H         24.88052       30.91751       16.01357
H         23.47817       31.82771       15.41884
H         24.96687       31.78208       14.46714
H         23.32521       27.25293       14.38779
H         20.37692       27.44717       15.19359
C         10.23683       26.29668       16.58262
C          9.10113       25.89663       15.98888
C          8.11886       26.87573       15.40833
H          8.88391       24.84215       15.83703
C          6.71992       26.29136       15.29571
H          8.07961       27.78734       16.01618
H          8.46165       27.15804       14.40576
H          6.32245       26.01747       16.27788
H          6.71557       25.39718       14.66324
H          6.04301       27.02333       14.84342
H         10.43983       27.36408       16.64688
H         11.92643       25.61269       15.76402
C         13.67987       26.64570       13.42694
C         12.71905       26.27787       12.56455
C         11.97521       27.23507       11.67375
H         12.41040       25.24343       12.47281
C         11.25261       26.51388       10.54117
H         11.23157       27.77066       12.27440
H         12.66391       27.97176       11.24548
H         10.54195       25.77728       10.93193
H         11.95725       25.99105        9.88587
H         10.68892       27.22959        9.93400
H         13.93807       27.70113       13.46528
H         13.99072       26.17067       15.76593
C         21.36149       24.20900       31.09510
C         21.11720       25.44869       31.55554
C         20.64460       25.75366       32.94670
H         21.20146       26.30467       30.88538
C         20.38115       27.24487       33.12239
H         19.71313       25.20906       33.14064
H         21.39291       25.42978       33.67720
H         19.64279       27.60622       32.39713
H         21.30022       27.82536       32.98540
H         19.99634       27.44944       34.12588
H         21.24349       23.34848       31.74503
H         20.51506       24.52224       28.84514
C         18.89809        9.14993       24.39874
C         20.13562        8.62825       24.35264
C         20.46414        7.25415       24.86873
H         20.94877        9.15832       23.86317
C         21.95908        6.96810       24.80933
H         20.11701        7.14624       25.90207
H         19.94460        6.50835       24.25516
H         22.52208        7.67279       25.43015
H         22.33558        7.04250       23.78272
H         22.16618        5.95538       25.16952
H         18.09474        8.57083       24.84839
H         18.37086        9.84472       22.43719
C         27.98551       12.45136       19.76592
C         28.86905       11.53264       19.33813
C         29.63054       10.62738       20.26921
H         29.03459       11.38121       18.27186
C         30.76721        9.89888       19.56335
H         30.04223       11.20536       21.10444
H         28.94344        9.87949       20.68225
H         31.48414       10.60340       19.12931
H         30.38619        9.25993       18.75875
H         31.30487        9.25924       20.27113
H         27.81067       12.56172       20.83310
H         27.16429       13.17424       17.27158
C          9.08604       21.65307       21.52543
C          8.75218       22.30867       22.65043
C          7.34968       22.73885       22.97541
H          9.51470       22.55428       23.38974
C          7.32512       23.76079       24.10476
H          6.87240       23.17342       22.08964
H          6.76741       21.86239       23.28117
H          7.89212       24.65993       23.84086
H          7.75717       23.34374       25.02158
H          6.29546       24.05933       24.32508
H          8.31846       21.42465       20.79430
H         11.52975       22.01141       21.98204
C         13.76742       29.40125       16.29082
C         13.26388       30.61372       16.56948
C         12.36852       31.34508       15.60662
H         13.46977       31.09260       17.52569
C         11.99861       32.73354       16.10713
H         12.86915       31.44000       14.63586
H         11.44775       30.76885       15.45622
H         12.89062       33.34944       16.26231
H         11.45165       32.67801       17.05452
H         11.35874       33.24049       15.37765
H         13.50673       28.93621       15.34642
H         14.59047       28.70853       18.81976
C         12.26723       12.27147       20.08812
C         12.43087       10.97958       19.75633
C         11.45710       10.22917       18.89121
H         13.24731       10.39497       20.17477
C         11.79983        8.74709       18.81160
H         10.44897       10.32577       19.31163
H         11.44487       10.65697       17.88398
H         11.76748        8.27681       19.80037
H         12.80304        8.59546       18.40666
H         11.09021        8.22466       18.16282
H         11.41772       12.82560       19.69747
H         12.15157       12.57142       22.21024
C          9.08909       18.44706       18.59035
C          7.84467       18.87689       18.86341
C          6.60038       18.28468       18.26347
H          7.69185       19.73961       19.50602
C          5.34052       18.96640       18.78473
H          6.63277       18.40461       17.17465
H          6.54975       17.21461       18.47899
H          5.32862       20.02916       18.51819
H          5.26767       18.89535       19.87408
H          4.44844       18.50121       18.35369
H          9.21408       17.59366       17.92877
H          9.87934       20.50339       19.00545
C         22.10100       14.88525       28.10750
C         23.30490       15.17407       28.63115
C         24.02510       14.28857       29.61176
H         23.85925       16.04530       28.30055
C         25.33518       14.91232       30.08160
H         23.38942       14.08587       30.48010
H         24.25536       13.33335       29.12491
H         25.15580       15.84183       30.63216
H         25.99341       15.14111       29.23535
H         25.86968       14.22281       30.74298
H         21.59436       13.97734       28.42757
H         22.36833       15.20573       26.00532
C         18.95556       30.98892       15.67038
C         19.50565       31.26735       14.47987
C         19.74793       32.69066       14.05314
H         19.80460       30.47748       13.79431
C         19.95337       32.82614       12.55351
H         18.90310       33.32456       14.35105
H         20.64122       33.06370       14.56691
H         19.05942       32.52130       12.00014
H         20.79516       32.21361       12.21467
H         20.17212       33.86851       12.29908
H         18.68828       31.82660       16.31442
H         18.73433       30.16576       17.66528
C         23.87389       13.66922       10.88618
C         23.51958       13.16176        9.69106
C         24.43981       12.31625        8.85079
H         22.51055       13.30759        9.30477
C         24.04347       12.25900        7.38207
H         25.47111       12.67936        8.92841
H         24.41213       11.29320        9.23700
H         24.08962       13.24630        6.91326
H         23.02823       11.86525        7.26190
H         24.72238       11.59178        6.83895
H         24.87640       13.48020       11.26183
H         21.42278       14.45818       11.42950
C         17.80574       12.14766       14.72991
C         18.06672       10.87711       14.37551
C         17.21154       10.08828       13.42102
H         18.91536       10.34090       14.79469
C         17.60258        8.61494       13.39556
H         16.16056       10.16553       13.71633
H         17.30779       10.49960       12.41077
H         17.60775        8.17985       14.40078
H         18.60257        8.48419       12.96842
H         16.89647        8.04426       12.78389
H         16.94105       12.64961       14.30103
H         18.08693       12.49783       17.06848
C         24.93396       22.29779       12.12424
C         25.03305       23.63033       11.98578
C         25.92268       24.27427       10.95259
H         24.47545       24.31579       12.61697
C         25.90541       25.79445       11.03730
H         26.95154       23.93187       11.09247
H         25.60046       23.97427        9.94893
H         26.17641       26.14782       12.03790
H         24.91130       26.17946       10.79827
H         26.61359       26.22559       10.32197
H         25.52426       21.68238       11.44830
H         24.05613       19.88299       13.25226
C          9.08926       18.79359       24.28405
C          8.09900       18.00387       24.72788
C          6.82347       18.58194       25.28263
H          8.15978       16.92060       24.63625
C          5.91002       17.52785       25.88913
H          7.05233       19.33567       26.04501
H          6.28212       19.08166       24.46975
H          6.38002       17.04274       26.75010
H          5.65568       16.75397       25.15849
H          4.97563       17.98951       26.22551
H          8.96298       19.87011       24.37044
H          9.92565       18.50401       22.14220
C         26.63358       28.99590       23.85070
C         26.19513       29.96317       24.67794
C         27.08500       30.82121       25.53992
H         25.13405       30.18752       24.76535
C         26.32391       31.44130       26.70895
H         27.91944       30.23051       25.93430
H         27.49995       31.63097       24.92947
H         25.89229       30.67347       27.35966
H         25.50893       32.08295       26.35417
H         26.99384       32.06185       27.31367
H         27.70407       28.81912       23.77624
H         25.67136       28.49826       21.42602
C         23.99522        8.80980       18.50458
C         23.24593        7.71032       18.66810
C         23.90334        6.40685       19.04896
H         22.15962        7.74981       18.63261
C         23.03228        5.18834       18.80095
H         24.84783        6.28240       18.50397
H         24.14666        6.44479       20.11823
H         22.81631        5.06408       17.73582
H         22.08444        5.26339       19.34354
H         23.54787        4.28703       19.15096
H         25.07230        8.70338       18.63163
H         23.77961       10.42408       19.76132
C         30.84188       19.35972       15.89358
C         31.94274       19.73208       16.56428
C         33.06344       20.49347       15.91353
H         32.08188       19.44246       17.60468
C         33.83131       21.34882       16.90883
H         33.75547       19.77419       15.46062
H         32.67984       21.13505       15.11113
H         34.25732       20.73392       17.70919
H         33.18653       22.10687       17.36459
H         34.65776       21.86029       16.40466
H         30.74996       19.61781       14.84092
H         30.52670       17.30397       16.61426
C         30.83834       24.25772       21.28875
C         31.86607       24.67853       22.04226
C         33.08310       25.31074       21.41747
H         31.86460       24.54149       23.12201
C         34.09872       25.78673       22.44500
H         33.56995       24.57737       20.76305
H         32.78180       26.16362       20.79748
H         34.42373       24.96550       23.09237
H         33.68212       26.57884       23.07534
H         34.98415       26.18721       21.93963
H         30.89832       24.39654       20.21132
H         30.14140       22.16308       21.72949
C         29.19696       15.89836       13.45588
C         29.38977       14.58659       13.54979
C         30.29722       13.84123       12.60330
H         28.93504       13.99304       14.34282
C         30.28476       12.34040       12.84939
H         29.99423       14.03712       11.56832
H         31.32316       14.20765       12.73003
H         29.28281       11.92345       12.70322
H         30.60845       12.10487       13.86927
H         30.96727       11.83930       12.15560
H         29.70116       16.42935       12.64444
H         29.11064       18.17203       14.08101
C         20.92122       30.95469       23.95974
C         19.91767       31.25519       24.80065
C         19.51326       32.67221       25.10346
H         19.40708       30.47547       25.36019
C         18.03442       32.79825       25.43471
H         20.09266       33.01481       25.96903
H         19.75529       33.33600       24.26574
H         17.76786       32.17020       26.29186
H         17.40728       32.50625       24.58697
H         17.79631       33.83499       25.69545
H         21.45775       31.75550       23.45592
H         22.55353       29.91335       24.70340
C         13.47499       13.82793       26.74214
C         12.13992       13.69364       26.83858
C         11.44723       12.86900       27.88876
H         11.47607       14.12900       26.09658
C         10.20384       13.55438       28.43792
H         11.14112       11.92265       27.42859
H         12.12686       12.62523       28.71236
H          9.48717       13.77672       27.63985
H         10.44897       14.49405       28.93901
H          9.70464       12.90308       29.16319
H         14.10101       13.31538       27.47064
H         13.87361       13.45181       24.74442
C         23.37541       10.58709       13.44228
C         24.52225       10.59238       12.73397
C         24.90132        9.58346       11.68926
H         25.26261       11.37501       12.90194
C         26.26383        9.90759       11.08032
H         24.94189        8.58372       12.13388
H         24.14744        9.57591       10.89463
H         27.05894        9.83118       11.82973
H         26.29303       10.92461       10.67452
H         26.49535        9.21374       10.26652
H         22.63728        9.80866       13.26600
H         24.33957       12.02985       14.63766
C          8.87003       15.69317       21.45917
C          7.72080       16.37443       21.54989
C          6.40378       15.72964       21.20006
H          7.70470       17.42366       21.83366
C          5.21016       16.40530       21.85418
H          6.27541       15.76966       20.11430
H          6.40562       14.66968       21.48270
H          5.23053       17.48974       21.71316
H          5.18316       16.20060       22.92732
H          4.28054       16.02619       21.41603
H          8.80392       14.65761       21.12733
H         10.91197       15.62707       20.38925
C         16.01467       18.95216       31.02895
C         16.54080       18.71470       32.24085
C         15.98165       19.32984       33.49467
H         17.35613       18.00393       32.36189
C         16.92211       19.18230       34.68167
H         15.76780       20.39313       33.33570
H         15.03633       18.83010       33.73804
H         17.86616       19.70851       34.50856
H         17.14770       18.12828       34.87821
H         16.45940       19.59838       35.58266
H         15.16626       19.62692       30.94422
H         16.12266       16.83929       30.00244
C         14.60080       22.09632       27.95271
C         13.59120       22.91388       27.61975
C         12.77559       23.64983       28.65014
H         13.34741       23.12729       26.58426