963
	Energy:    5207.9420536
Si        14.66623       14.64709       20.01747
Si        14.57779       14.62258       25.38133
Si        14.64526       19.90849       14.68226
Si        14.76310       19.94644       19.98848
Si        14.65702       19.96105       25.29769
Si        14.55370       25.31117       14.59670
Si        14.62194       25.25798       19.93712
Si        20.02952       14.68040       14.71087
Si        19.97631       14.77013       20.01192
Si        19.94576       14.70654       25.30048
Si        19.96964       19.97003       14.79082
Si        19.95003       19.97803       19.99623
Si        19.94312       19.98692       25.22335
Si        19.93562       25.28470       14.68047
Si        19.92961       25.19155       20.00222
Si        19.93995       25.27433       25.29302
Si        25.30587       14.64705       14.72185
Si        25.27730       14.70076       20.01187
Si        25.29346       20.00629       14.69074
Si        25.16533       19.99243       20.01526
Si        25.23250       20.00819       25.28508
Si        25.24568       25.28561       20.04218
Si        25.30994       25.33541       25.38405
Si        14.69852       12.06551       22.71687
Si        14.66468       17.28084       17.36649
Si        14.72312       17.29156       22.67249
Si        14.65687       17.29748       28.03797
Si        14.68430       22.60472       12.10121
Si        14.67251       22.63298       17.27088
Si        14.63477       22.59793       22.62105
Si        14.62708       27.93853       17.25647
Si        20.08861       12.05682       17.45328
Si        19.90240       12.08527       22.60152
Si        20.07871       17.40578       12.08052
Si        19.97854       17.32131       17.36080
Si        19.95510       17.34349       22.65067
Si        19.86790       17.38617       27.94126
Si        19.88949       22.53934       12.05882
Si        19.94539       22.61982       17.35008
Si        19.92952       22.62767       22.64810
Si        20.05865       22.58783       27.92955
Si        19.85636       27.91975       17.41267
Si        20.00208       27.91676       22.58568
Si        25.32675       11.96253       17.36550
Si        25.28938       17.26795       12.12163
Si        25.23697       17.32427       17.33509
Si        25.27097       17.35810       22.65082
Si        25.24951       22.63282       17.39312
Si        25.19284       22.66989       22.69181
Si        25.21324       22.63993       27.93239
Si        25.25267       27.96109       22.72750
Si        12.01006       17.35235       20.07657
Si        12.06410       17.30926       25.26245
Si        11.91243       22.52631       14.66875
Si        12.07192       22.50679       19.90815
Si        17.40419       12.01566       20.10752
Si        17.27723       12.02245       25.33902
Si        17.35133       17.30242       14.68625
Si        17.32720       17.31523       19.99801
Si        17.26620       17.30828       25.27312
Si        17.27095       22.63420       14.72876
Si        17.29397       22.61835       19.98084
Si        17.28529       22.63823       25.34471
Si        17.22498       27.86579       14.69404
Si        17.34609       27.90106       19.90886
Si        22.71746       11.98902       14.71449
Si        22.56510       12.08890       19.96727
Si        22.66001       17.30850       14.75913
Si        22.60995       17.34084       20.00215
Si        22.60081       17.35102       25.33218
Si        22.59221       22.62362       14.70163
Si        22.57997       22.63101       20.01240
Si        22.61656       22.66360       25.25031
Si        22.51247       27.91418       20.09414
Si        22.59832       27.88859       25.28808
Si        27.94391       17.25438       14.71612
Si        27.91646       17.42028       19.93966
Si        27.86011       22.59189       20.12667
Si        27.85976       22.66566       25.28364
Si        12.05473       14.71154       22.71243
Si        12.07970       19.98696       17.44731
Si        12.03492       19.87351       22.56449
Si        11.91404       25.22558       17.24807
Si        17.35316       14.62032       17.36069
Si        17.28918       14.72394       22.69685
Si        17.25187       14.71026       27.94207
Si        17.39673       20.00041       12.04543
Si        17.31250       19.95895       17.34217
Si        17.31213       19.97847       22.64559
Si        17.36560       19.91815       27.94544
Si        17.23119       25.23865       11.99594
Si        17.25800       25.21686       17.30510
Si        17.27029       25.30308       22.64144
Si        22.70122       14.69732       12.01091
Si        22.68079       14.70212       17.33520
Si        22.61194       14.69382       22.66067
Si        22.56547       19.90263       12.08596
Si        22.60659       19.98344       17.36260
Si        22.58322       19.98760       22.64582
Si        22.53598       20.06437       27.96477
Si        22.57301       25.30483       17.37224
Si        22.61512       25.24235       22.68751
Si        22.66858       25.26820       27.91159
Si        27.93140       14.73844       17.34326
Si        27.91050       19.93631       17.43164
Si        27.87969       20.06862       22.60709
Si        27.89553       25.26198       22.73549
Si        13.30855       16.01787       18.75058
Si        13.43164       15.97119       24.00789
Si        13.31947       21.23638       13.34540
Si        13.53769       21.26504       18.65210
Si        13.30506       21.20780       23.89125
Si        13.26540       26.58164       18.60472
Si        19.07205       10.83256       19.10616
Si        18.28876       10.87200       23.64767
Si        18.75636       16.04948       13.34852
Si        18.64677       16.01654       18.67072
Si        18.63243       16.03877       23.97173
Si        18.22056       16.38611       29.16957
Si        18.63374       21.27893       13.54672
Si        18.62581       21.29072       18.66925
Si        18.60449       21.31680       23.96073
Si        19.04212       20.93621       29.11678
Si        18.58738       26.56332       13.32843
Si        18.60893       26.41073       18.65447
Si        18.61952       26.66607       23.95301
Si        23.59596       10.83198       18.37127
Si        23.99284       15.96080       13.47576
Si        23.94327       16.02900       18.68544
Si        23.93531       16.03664       23.98449
Si        23.91589       21.30061       13.33618
Si        23.88314       21.31399       18.69238
Si        23.89284       21.31305       23.95562
Si        23.51843       21.71892       29.18506
Si        23.83342       26.59519       18.79348
Si        23.97109       26.54034       24.01728
Si        29.16541       16.42937       18.29365
Si        29.06114       20.96133       19.10710
Si        29.10962       21.70291       23.62227
Si        10.78108       16.38340       21.77082
Si        10.83165       21.59010       16.45246
Si        10.82949       20.86204       20.90329
Si        16.39628       10.84102       21.80449
Si        16.04044       15.97274       16.03730
Si        16.01070       15.99871       21.32125
Si        15.92336       15.97770       26.57551
Si        16.35277       21.66096       10.87820
Si        15.98232       21.26346       16.01008
Si        16.01541       21.29155       21.31611
Si        15.95850       21.25995       26.68995
Si        15.91211       26.48513       15.97862
Si        16.00332       26.59788       21.20585
Si        21.74442       10.81328       16.47157
Si        20.92396       10.85957       20.97464
Si        21.73402       16.42040       10.85149
Si        21.32326       16.01100       16.05937
Si        21.29433       16.05253       21.33966
Si        21.24406       16.05781       26.68607
Si        20.90779       20.90504       10.82390
Si        21.28808       21.30408       16.06501
Si        21.25397       21.30390       21.32612
Si        21.27478       21.31783       26.44904
Si        21.23016       26.66842       16.07115
Si        21.24812       26.42165       21.34171
Si        21.29933       26.56265       26.60365
Si        26.54236       15.98534       16.02259
Si        26.61704       16.09721       21.27285
Si        26.59316       21.26376       16.13217
Si        26.38799       21.31714       21.35584
Si        26.53972       21.32975       26.60309
Si        26.58337       26.61039       21.33846
Si        10.79383       19.03999       19.09932
Si        10.81335       18.23193       23.59398
Si        10.83000       23.47595       18.27901
Si        16.04018       13.25577       18.73269
Si        15.96748       13.42825       24.05685
Si        16.07076       18.66404       13.33731
Si        16.02802       18.61882       18.65893
Si        16.00175       18.65772       23.96048
Si        16.40329       18.26276       29.22732
Si        15.92753       23.97342       13.43320
Si        15.96713       23.91523       18.63689
Si        15.95631       23.92429       23.95254
Si        16.34610       29.08181       18.25092
Si        21.38104       13.38805       13.41011
Si        21.31737       13.54295       18.69563
Si        21.23089       13.36513       23.93548
Si        21.31717       18.65978       13.56701
Si        21.28284       18.65964       18.68369
Si        21.27533       18.65858       23.95358
Si        20.85999       19.05283       29.12543
Si        21.19683       23.86922       13.36332
Si        21.25981       23.92098       18.67523
Si        21.25075       23.94179       23.96092
Si        21.70357       23.60198       29.15258
Si        20.85321       29.12677       19.08609
Si        21.67392       29.11607       23.59662
Si        26.64128       13.39377       18.71019
Si        26.63240       18.65111       13.41146
Si        26.41658       18.67365       18.69057
Si        26.59232       18.73766       23.93235
Si        26.57776       23.89872       18.77827
Si        26.49194       24.00084       24.02374
Si        13.34288       13.34322       21.36765
Si        13.29347       18.61975       16.06381
Si        13.52074       18.62059       21.31472
Si        13.37190       18.60456       26.60747
Si        13.30414       23.96296       15.89364
Si        13.30648       23.87116       21.23290
Si        18.74387       13.27159       16.04966
Si        18.64134       13.54339       21.33949
Si        18.61713       13.41134       26.62081
Si        19.09423       19.05597       10.80128
Si        18.64711       18.63234       16.05824
Si        18.63523       18.65682       21.32035
Si        18.61535       18.65775       26.45768
Si        18.19760       23.50273       10.86591
Si        18.62183       23.92860       16.02579
Si        18.59712       23.92102       21.32898
Si        18.66322       23.93145       26.71126
Si        18.21250       29.08694       16.35920
Si        18.98811       29.11621       20.91127
Si        24.04140       13.34201       16.01595
Si        23.90183       13.36525       21.29278
Si        23.62665       18.26412       10.90886
Si        23.94165       18.67656       16.04512
Si        23.89189       18.66182       21.33870
Si        23.86190       18.76991       26.63985
Si        23.90038       23.95236       16.07470
Si        23.89625       23.94480       21.33953
Si        23.95996       23.97944       26.54735
Si        23.52696       29.12329       21.74439
Si        29.13705       18.29682       16.43765
Si        29.09826       19.07120       20.95974
Si        29.12418       23.57297       21.78406
C         27.53674       27.97494       18.92656
C         27.80474       27.69516       20.40762
C         28.64467       28.81182       18.28591
H         26.58469       28.50298       18.80951
H         27.45819       27.03225       18.37740
C         28.46681       28.88630       16.77624
H         29.62617       28.37662       18.50614
H         28.63337       29.82329       18.70647
H         28.56009       27.89258       16.32470
H         27.48405       29.28905       16.51321
H         27.89352       28.65421       20.93211
H         28.79509       27.22904       20.48280
H         29.23180       29.53084       16.33288
C         13.48207       30.55827       16.66368
C         13.62580       29.10348       16.19429
C         12.61426       31.37585       15.70429
H         14.46927       31.03193       16.71761
H         13.04986       30.59539       17.67100
C         12.57702       32.84283       16.10579
H         11.59428       30.97556       15.69162
H         13.00860       31.29732       14.68430
H         12.16853       32.96496       17.11382
H         13.58131       33.27934       16.08765
H         14.07531       29.13184       15.19489
H         12.62315       28.68629       16.05929
H         11.94987       33.41111       15.41185
C         12.09783       13.84509       26.74234
C         13.53154       13.45191       26.38071
C         11.40798       12.82043       27.64101
H         11.49910       13.95967       25.83401
H         12.08660       14.80685       27.25092
C          9.98627       13.26198       27.96225
H         11.96922       12.70236       28.57461
H         11.38130       11.84401       27.14466
H          9.98319       14.22501       28.48397
H          9.39282       13.36936       27.04796
H         13.44716       12.51570       25.82293
H         14.06977       13.19931       27.30163
H          9.49244       12.52598       28.60350
C          7.88669       16.64704       21.58458
C          9.10540       15.76706       21.31466
C          6.61480       16.06548       20.96628
H          8.04667       17.66037       21.20394
H          7.73171       16.72864       22.66269
C          5.40021       16.91400       21.30987
H          6.45355       15.04482       21.33190
H          6.72221       16.00733       19.87754
H          5.22926       16.93228       22.39119
H          5.53142       17.94521       20.96920
H          9.12188       15.50963       20.24805
H          8.93436       14.81377       21.83144
H          4.50418       16.50750       20.83099
C          7.94191       19.49706       18.74978
C          9.12203       18.55619       18.49804
C          6.66576       18.99287       18.07291
H          8.16590       20.50605       18.38572
H          7.75719       19.57490       19.82589
C          5.47728       19.88567       18.39396
H          6.44558       17.97235       18.40414
H          6.80811       18.95694       16.98684
H          5.30842       19.94412       19.47401
H          5.63663       20.90093       18.01759
H          9.19065       18.38065       17.41655
H          8.86421       17.57794       18.91667
H          4.56878       19.48834       17.93072
C         18.15192       10.74000       14.71931
C         17.70561       12.19433       14.91405
C         17.18165        9.94261       13.84869
H         18.22253       10.24314       15.69076
H         19.14872       10.70498       14.26541
C         17.55457        8.46683       13.82930
H         17.18614       10.33586       12.82628
H         16.16147       10.04512       14.23203
H         18.54887        8.31815       13.39698
H         17.55970        8.04896       14.84174
H         16.67893       12.18672       15.29057
H         17.64405       12.67099       13.92828
H         16.83270        7.89902       13.23443
C         13.44603       22.53814       27.57675
C         14.93272       22.31027       27.85165
C         12.78028       23.34427       28.69434
H         12.92222       21.58546       27.48806
H         13.31922       23.07432       26.63006
C         11.27753       23.44130       28.47770
H         13.21011       24.35149       28.73382
H         12.96924       22.86984       29.66441
H         11.04749       23.91868       27.51999
H         10.81756       22.44726       28.48365
H         15.03221       21.89437       28.86163
H         15.38327       23.30328       27.88493
H         10.81539       24.03165       29.27476
C         20.80484       27.26681       11.55346
C         19.51778       27.76066       12.22153
C         21.49684       28.37180       10.75326
H         20.59607       26.41575       10.89420
H         21.50328       26.91563       12.31698
C         22.92471       27.98008       10.40033
H         21.52320       29.30249       11.33194
H         20.93136       28.57238        9.83651
H         23.52922       27.86884       11.30718
H         22.95376       27.03352        9.85177
H         18.83538       28.12622       11.44468
H         19.77080       28.63923       12.82351
H         23.39030       28.75229        9.78040
C         23.59371       13.73622        9.38287
C         23.73199       13.61961       10.90420
C         24.47777       12.69801        8.68331
H         23.88406       14.73924        9.04816
H         22.54884       13.58108        9.08626
C         24.32031       12.74545        7.17293
H         24.22192       11.69162        9.03514
H         25.52886       12.87264        8.94171
H         23.28842       12.52744        6.87991
H         24.59092       13.73010        6.77960
H         24.78947       13.76164       11.15669
H         23.49078       12.58162       11.15188
H         24.97009       12.00043        6.70253
C         12.51153       16.27339       14.50549
C         12.04691       17.60197       15.10683
C         11.39829       15.57665       13.72323
H         12.83334       15.60120       15.30767
H         13.37055       16.43044       13.84350
C         11.82393       14.17787       13.30134
H         11.14353       16.16602       12.83522
H         10.49420       15.50286       14.33854
H         12.72557       14.21015       12.68154
H         12.03364       13.55360       14.17674
H         11.20610       17.38140       15.77674
H         11.62747       18.22169       14.30811
H         11.02876       13.69497       12.72538
C         16.15926       27.77074       25.11270
C         17.68541       27.84844       25.07145
C         15.54876       28.81286       26.04980
H         15.84207       26.77891       25.44505
H         15.75310       27.93242       24.11110
C         14.02840       28.76469       25.99355
H         15.88706       29.81677       25.76884
H         15.88095       28.62922       27.07780
H         13.66746       28.98765       24.98374
H         13.65540       27.77529       26.27782
H         18.06022       27.73821       26.09532
H         17.94903       28.86848       24.77748
H         13.59734       29.50178       26.67762
C         15.26998       10.69209       17.55782
C         14.92498       12.18140       17.67128
C         14.26104        9.93397       16.69649
H         15.28636       10.23344       18.55229
H         16.26994       10.56628       17.13192
C         14.58148        8.44740       16.66111
H         14.26175       10.33400       15.67694
H         13.25090       10.07207       17.09460
H         15.57038        8.26926       16.23016
H         14.57145        8.01802       17.66811
H         13.90409       12.25624       18.05697
H         14.87365       12.61080       16.66423
H         13.84301        7.91264       16.05627
C         23.30675       15.53157       28.68001
C         22.24249       14.90264       27.77631
C         23.92411       14.52406       29.64871
H         22.88440       16.36180       29.25620
H         24.11049       15.93650       28.05857
C         25.00255       15.18309       30.49762
H         24.36386       13.68993       29.09037
H         23.14970       14.11044       30.30415
H         25.80109       15.59212       29.86947
H         24.58638       16.00142       31.09451
H         21.54267       14.33640       28.40073
H         22.73833       14.16165       27.13694
H         25.44838       14.45498       31.18183
C         25.05710       30.97655       20.20604
C         23.96473       30.85927       21.28446
C         25.38139       32.42862       19.86116
H         24.74234       30.45603       19.29216
H         25.97480       30.48207       20.54799
C         26.50019       32.50725       18.83207
H         25.68545       32.96973       20.76427
H         24.48888       32.92534       19.46451
H         27.42206       32.06351       19.22204
H         26.22891       31.97724       17.91361
H         23.06662       31.38231       20.93516
H         24.29896       31.39564       22.18077
H         26.70909       33.54995       18.57440
C         17.96543        8.18315       19.53912
C         18.80861        9.06901       18.62240
C         17.75909        6.78465       18.95620
H         16.97724        8.63259       19.67049
H         18.43275        8.10686       20.52826
C         16.89789        5.93187       19.87603
H         18.72519        6.29263       18.79898
H         17.26783        6.86128       17.97898
H         17.39417        5.77209       20.83860
H         15.93068        6.40969       20.06503
H         18.33342        9.06025       17.63479
H         19.78449        8.58899       18.48275
H         16.70945        4.95386       19.42280
C         20.80499       25.56718       31.04890
C         21.31432       24.12579       30.87854
C         20.28350       25.82871       32.46092
H         20.01106       25.78793       30.32680
H         21.61880       26.27254       30.83678
C         19.77401       27.25555       32.59963
H         21.08185       25.65591       33.19142
H         19.46989       25.13278       32.69390
H         20.57188       27.97814       32.39941
H         18.95412       27.44896       31.90008
H         20.57674       23.43346       31.30110
H         22.21517       24.02525       31.49538
H         19.40327       27.43064       33.61411
C         28.83613       14.85503       13.28738
C         29.16295       16.30289       13.66339
C         29.97252       14.18636       12.51173
H         27.92481       14.81756       12.68071
H         28.65310       14.26848       14.19206
C         29.73935       12.68714       12.39012
H         30.93030       14.35447       13.01734
H         30.04740       14.62891       11.51217
H         29.74259       12.21176       13.37723
H         28.77799       12.47536       11.91281
H         29.34688       16.86563       12.74051
H         30.12441       16.28685       14.18776
H         30.53002       12.22471       11.79160
C         11.93201       20.74122       10.81943
C         12.28453       20.16803       12.19896
C         11.06113       19.77832       10.01176
H         12.84839       20.93367       10.25146
H         11.41215       21.70144       10.92202
C         10.87360       20.27241        8.58505
H         10.08255       19.67069       10.49307
H         11.52403       18.78506        9.98513
H         10.40603       21.26187        8.56823
H         11.83566       20.33952        8.06599
H         12.81557       19.22135       12.04163
H         11.35352       19.90738       12.71552
H         10.23571       19.58241        8.02425
C          9.12154       22.60492       22.40737
C          9.15340       21.45883       21.38227
C          7.69105       23.02366       22.74608
H          9.66130       23.47574       22.01457
H          9.63527       22.30459       23.32933
C          7.67692       24.20367       23.70622
H          7.15475       22.18167       23.19845
H          7.15491       23.30009       21.83094
H          8.19222       23.95702       24.64012
H          8.16997       25.07521       23.26282
H          8.62376       21.79817       20.48470
H          8.56650       20.62430       21.77774
H          6.64736       24.48412       23.94897
C         17.05348       18.95797       32.00952
C         15.97363       18.79851       30.93833
C         16.45313       19.49589       33.31277
H         17.84414       19.63127       31.67655
H         17.52489       17.99378       32.21603
C         17.50451       19.62906       34.40235
H         15.66015       18.82389       33.66200
H         15.99360       20.47519       33.13491
H         17.96164       18.66006       34.62674
H         18.29601       20.32267       34.10173
H         15.43482       19.75143       30.85264
H         15.24754       18.10155       31.35561
H         17.04906       20.01010       35.32193
C         31.88995       19.15755       16.90479
C         30.85155       18.69992       15.88019
C         33.10136       19.79810       16.22084
H         32.21296       18.30782       17.51848
H         31.46029       19.89125       17.58476
C         34.08891       20.35011       17.23674
H         32.77044       20.61999       15.57412
H         33.60358       19.06368       15.58137
H         33.61501       21.10416       17.87413
H         34.47970       19.55402       17.87756
H         31.27641       17.83634       15.35601
H         30.75504       19.48291       15.11750
H         34.93301       20.82377       16.72561
C         19.41274       14.52513       31.00192
C         18.66796       15.86396       30.88193
C         19.82145       14.22156       32.44279
H         20.31001       14.53219       30.37264
H         18.77434       13.71092       30.63638
C         20.45181       12.84096       32.55262
H         18.94664       14.27019       33.10107
H         20.53667       14.97530       32.79121
H         19.73809       12.06197       32.26423
H         21.33033       12.75584       31.90498
H         19.27828       16.64543       31.34932
H         17.75084       15.78938       31.47867
H         20.76667       12.64668       33.58240
C         16.71772       26.53622        9.44249
C         16.18237       26.27815       10.85768
C         15.76112       27.41670        8.63574
H         16.84356       25.58602        8.91071
H         17.70513       27.01181        9.48647
C         16.23665       27.57971        7.20024
H         15.67736       28.40331        9.10547
H         14.75890       26.97216        8.63001
H         17.22701       28.04439        7.16429
H         16.29369       26.61014        6.69429
H         15.20202       25.79950       10.75490
H         15.99382       27.24606       11.33665
H         15.54200       28.21295        6.63963
C          8.40224       17.87668       25.15289
C          9.13378       18.76106       24.13329
C          6.99281       18.40163       25.43307
H          8.95970       17.85095       26.09741
H          8.34683       16.84134       24.79641
C          6.23302       17.47763       26.37144
H          6.43287       18.49957       24.49598
H          7.05452       19.40024       25.88138
H          6.09271       16.49120       25.91765
H          6.76886       17.34780       27.31710
H          9.21853       19.76372       24.57275
H          8.49616       18.88604       23.25335
H          5.24479       17.89200       26.59391
C         25.39236       23.69641       12.50201
C         24.86817       22.31971       12.08674
C         26.17487       24.36755       11.37137
H         26.03719       23.61287       13.38411
H         24.55257       24.34601       12.76985
C         26.49548       25.81588       11.70851
H         25.59521       24.34033       10.44136
H         27.10610       23.81948       11.19068
H         25.57676       26.40056       11.82329
H         27.06543       25.88872       12.63995
H         25.70942       21.72414       11.72116
H         24.21973       22.47164       11.21464
H         27.08641       26.27118       10.90784
C         18.77894       31.18418       14.47913
C         18.55066       30.86617       15.96527
C         19.17123       32.64140       14.24079
H         17.86455       30.96797       13.91191
H         19.56917       30.54050       14.07506
C         19.28169       32.93602       12.75090
H         20.13333       32.84917       14.72264
H         18.42788       33.31157       14.68662
H         20.01229       32.27625       12.27123
H         18.31676       32.79484       12.25234
H         17.71545       31.48102       16.32141
H         19.42899       31.19672       16.53251
H         19.59827       33.97070       12.58820
C         15.24708       10.02347       25.99434
C         16.39337       10.88955       26.52106
C         14.61602        9.17592       27.09994
H         15.59247        9.36708       25.18728
H         14.46996       10.66088       25.57294
C         13.32180        8.53187       26.62489
H         14.39873        9.79722       27.97650
H         15.31964        8.39774       27.41609
H         12.57806        9.29546       26.37198
H         13.49023        7.91204       25.73875
H         17.14114       10.22539       26.97351
H         16.00098       11.49620       27.34619
H         12.89999        7.89922       27.41176
C         23.03907       20.96097       31.95884
C         24.07299       21.36784       30.90705
C         23.70623       20.53714       33.26917
H         22.43677       20.12592       31.59811
H         22.34891       21.78727       32.15527
C         22.67238       20.16361       34.32033
H         24.33561       21.34847       33.65181
H         24.35897       19.67481       33.08865
H         22.03980       21.02177       34.56875
H         22.02723       19.35246       33.96728
H         24.82663       20.57152       30.84820
H         24.60725       22.24796       31.28718
H         23.16746       19.82912       35.23728
C         20.15353        8.92531       24.62042
C         18.75271        9.11927       24.01536
C         20.43219        7.46747       24.98241
H         20.27245        9.54725       25.51726
H         20.91510        9.25847       23.90576
C         21.88858        7.27398       25.38046
H         20.20523        6.81545       24.13142
H         19.78389        7.16330       25.81184
H         22.55469        7.50060       24.54090
H         22.16018        7.92628       26.21663
H         18.01110        8.68454       24.69570
H         18.69456        8.53171       23.09128