1177
	Energy:    4978.6223002
Si        14.63376       14.64261       20.01120
Si        14.64166       14.64319       25.36413
Si        14.58992       20.02046       14.63103
Si        14.73020       19.99904       19.99103
Si        14.65029       19.96288       25.35085
Si        14.61238       25.35705       14.63981
Si        14.61658       25.35706       19.98943
Si        19.98384       14.66614       14.64945
Si        19.98993       14.75606       19.99085
Si        20.01097       14.61719       25.33180
Si        19.95596       20.00869       14.74205
Si        19.97168       20.00155       19.98623
Si        19.99599       19.98639       25.23750
Si        19.93277       25.37653       14.62374
Si        19.97026       25.23749       19.97537
Si        19.98745       25.35835       25.36349
Si        25.28409       14.69835       14.63585
Si        25.35280       14.66985       19.92854
Si        25.30280       20.00879       14.58987
Si        25.20772       20.01101       19.97396
Si        25.33725       20.03003       25.32571
Si        25.31597       25.33158       19.97376
Si        25.31386       25.31991       25.30726
Si        14.68105       11.99786       22.73646
Si        14.59531       17.33917       17.32958
Si        14.69385       17.29458       22.69625
Si        14.66778       17.26665       28.01669
Si        14.63018       22.73002       11.99677
Si        14.66651       22.70942       17.28974
Si        14.61911       22.65552       22.66340
Si        14.65998       27.98731       17.27971
Si        20.08084       12.03698       17.40518
Si        19.90988       12.00974       22.56440
Si        20.06036       17.42020       11.99977
Si        19.96520       17.34318       17.32229
Si        19.99354       17.32492       22.65885
Si        19.91492       17.38625       27.96163
Si        19.85272       22.60021       12.01556
Si        19.96390       22.67363       17.31023
Si        19.97704       22.66043       22.65754
Si        20.09671       22.58032       27.96760
Si        19.86337       27.98061       17.37951
Si        20.07409       27.96731       22.57035
Si        25.31004       12.02337       17.21345
Si        25.25499       17.27208       11.97658
Si        25.25036       17.33472       17.27370
Si        25.36123       17.35204       22.63206
Si        25.32874       22.66192       17.29045
Si        25.26233       22.68846       22.66828
Si        25.32718       22.75144       27.99177
Si        25.25599       27.92841       22.66378
Si        11.98656       17.40383       20.08822
Si        12.00935       17.26468       25.32232
Si        11.97702       22.76380       14.67350
Si        12.01014       22.59038       19.90451
Si        17.39899       12.02422       20.08681
Si        17.26333       12.00264       25.33022
Si        17.28978       17.33717       14.59675
Si        17.31134       17.33222       19.99326
Si        17.29767       17.28686       25.29756
Si        17.25823       22.70236       14.69521
Si        17.30484       22.66542       19.99164
Si        17.33302       22.63910       25.36197
Si        17.21592       27.98827       14.65855
Si        17.40119       27.97268       19.89356
Si        22.69685       12.02897       14.66825
Si        22.60658       12.00109       19.87615
Si        22.64910       17.32308       14.68998
Si        22.64492       17.34245       19.98080
Si        22.68083       17.31929       25.36065
Si        22.61421       22.68298       14.59563
Si        22.63217       22.66635       19.96962
Si        22.68249       22.69569       25.28612
Si        22.54437       27.95713       20.05634
Si        22.72369       27.97527       25.31053
Si        27.91665       17.31627       14.63028
Si        27.97046       17.42709       19.86577
Si        27.93677       22.59658       20.06073
Si        27.97680       22.72519       25.29128
Si        12.00520       14.67554       22.73688
Si        11.97639       20.10792       17.39580
Si        12.01854       19.91186       22.60067
Si        11.96915       25.34923       17.26031
Si        17.31576       14.64248       17.33014
Si        17.29640       14.69735       22.69663
Si        17.27733       14.67355       27.98791
Si        17.36858       20.09823       12.01995
Si        17.29340       20.00203       17.31950
Si        17.31883       19.99051       22.66092
Si        17.41472       19.89667       27.99471
Si        17.21648       25.32260       11.99128
Si        17.26842       25.29253       17.29297
Si        17.32292       25.36831       22.66582
Si        22.66269       14.69351       12.00820
Si        22.67137       14.71849       17.28721
Si        22.68146       14.62959       22.62618
Si        22.53324       19.91612       11.99938
Si        22.62698       20.01470       17.30759
Si        22.64623       19.99848       22.65117
Si        22.59673       20.08979       27.97000
Si        22.64211       25.38726       17.28489
Si        22.65726       25.27552       22.67374
Si        22.73313       25.32967       27.97656
Si        27.95607       14.72781       17.19938
Si        27.91183       19.93509       17.37821
Si        27.95894       20.10099       22.54862
Si        27.95514       25.29968       22.69542
Si        13.27738       16.04454       18.74410
Si        13.38657       15.94851       24.05013
Si        13.29301       21.39211       13.32696
Si        13.50045       21.33915       18.65251
Si        13.30023       21.25463       23.95854
Si        13.31017       26.67552       18.63662
Si        19.05763       10.83034       19.05624
Si        18.25650       10.80628       23.60365
Si        18.71836       16.07308       13.30008
Si        18.64406       16.03602       18.65822
Si        18.66672       15.99687       23.98833
Si        18.26127       16.37805       29.19557
Si        18.61630       21.34223       13.51739
Si        18.63964       21.33210       18.65327
Si        18.65522       21.32216       23.95926
Si        19.09363       20.91226       29.17174
Si        18.56487       26.67548       13.30992
Si        18.63979       26.47028       18.63892
Si        18.72011       26.70395       23.93657
Si        23.62115       10.79474       18.21337
Si        23.97698       15.97869       13.37244
Si        23.96681       16.02972       18.63644
Si        24.00774       16.01432       23.96872
Si        23.88050       21.27645       13.26422
Si        23.93348       21.34593       18.62988
Si        23.96680       21.33548       23.97122
Si        23.59765       21.75328       29.18905
Si        23.91311       26.68644       18.71960
Si        24.00306       26.58109       24.01440
Si        29.14351       16.45431       18.17411
Si        29.13483       20.94696       19.02191
Si        29.18009       21.74480       23.56359
Si        10.78876       16.39150       21.76245
Si        10.76058       21.76154       16.38681
Si        10.82111       20.92948       20.93318
Si        16.38969       10.80026       21.74523
Si        15.99483       16.02427       16.00680
Si        15.99970       16.00373       21.33489
Si        15.94407       15.94912       26.62932
Si        16.35851       21.74710       10.79725
Si        15.96788       21.33778       15.99792
Si        16.01530       21.32931       21.33237
Si        16.07327       21.22789       26.69151
Si        15.92518       26.60268       15.95813
Si        16.06239       26.67495       21.24015
Si        21.71713       10.81857       16.37395
Si        20.93631       10.80634       20.89617
Si        21.69637       16.39153       10.77573
Si        21.30333       16.02598       16.00382
Si        21.33248       16.03366       21.32546
Si        21.27282       16.04034       26.68150
Si        20.87253       20.93555       10.81548
Si        21.30055       21.35016       16.00835
Si        21.30736       21.32963       21.31426
Si        21.33248       21.32631       26.46454
Si        21.21826       26.71982       16.01288
Si        21.30375       26.46003       21.31449
Si        21.35834       26.66273       26.66902
Si        26.55668       16.00477       15.92447
Si        26.68880       16.08149       21.20468
Si        26.65768       21.27258       16.00927
Si        26.44471       21.33849       21.30692
Si        26.65073       21.38169       26.64760
Si        26.62308       26.61909       21.33958
Si        10.80415       19.08875       19.07607
Si        10.80116       18.25708       23.61588
Si        10.78626       23.62539       18.27833
Si        16.04521       13.30602       18.74782
Si        15.95394       13.38387       24.05283
Si        16.00147       18.74814       13.28402
Si        16.00605       18.65874       18.65540
Si        16.00549       18.64937       23.98831
Si        16.40378       18.25042       29.21314
Si        15.91657       24.04052       13.37765
Si        15.97982       23.98918       18.65748
Si        16.02067       23.96173       23.97411
Si        16.37648       29.18991       18.24822
Si        21.32679       13.35142       13.34212
Si        21.33004       13.52790       18.65458
Si        21.28913       13.28466       23.90533
Si        21.29079       18.67608       13.50975
Si        21.30345       18.67786       18.65184
Si        21.33577       18.64977       23.95883
Si        20.93902       19.05677       29.15705
Si        21.19458       23.94906       13.28955
Si        21.31141       23.97186       18.62816
Si        21.30791       23.98301       23.98495
Si        21.73338       23.59881       29.18266
Si        20.88558       29.18300       19.04282
Si        21.72075       29.16868       23.59403
Si        26.65482       13.36255       18.57112
Si        26.59616       18.64591       13.26787
Si        26.43608       18.68352       18.63525
Si        26.69179       18.76495       23.91092
Si        26.65225       23.92750       18.70785
Si        26.58152       24.01504       24.01262
Si        13.34405       13.33080       21.37819
Si        13.25780       18.75112       16.05194
Si        13.51142       18.65658       21.33620
Si        13.33207       18.62768       26.67647
Si        13.34138       24.06736       15.94734
Si        13.28953       23.94173       21.25486
Si        18.72785       13.32185       16.06000
Si        18.65896       13.52343       21.33160
Si        18.65266       13.32688       26.65193
Si        19.03668       19.08267       10.81798
Si        18.62205       18.66542       16.01832
Si        18.65520       18.66241       21.32401
Si        18.66340       18.64825       26.47236
Si        18.21218       23.61524       10.78554
Si        18.62638       23.99623       15.99248
Si        18.64293       23.96113       21.32669
Si        18.73221       23.91674       26.69473
Si        18.21367       29.19666       16.35415
Si        19.07490       29.18665       20.90234
Si        24.01058       13.40362       15.93657
Si        23.95363       13.32230       21.19205
Si        23.53889       18.26833       10.78653
Si        23.94780       18.69007       15.97877
Si        23.94631       18.66878       21.31771
Si        23.94020       18.74974       26.67649
Si        23.95577       23.99430       15.96137
Si        23.95478       23.97867       21.30897
Si        24.03191       24.03973       26.61141
Si        23.55765       29.16158       21.71223
Si        29.11582       18.30716       16.32902
Si        29.15853       19.09430       20.87500
Si        29.16636       23.60234       21.71432
C         17.74577       24.85522       27.93616
C         17.19537       25.49603       28.78897
C         16.61615       26.39676       29.79301
C         15.15892       26.13636       30.09088
H         17.19096       26.36766       30.72292
H         16.68309       27.40604       29.39187
H         14.67053       27.04246       30.46584
H         15.04961       25.36872       30.85658
H         14.62819       25.81945       29.19445
C         30.89794       21.31666       24.05131
C         31.96503       20.99688       24.50163
C         33.23223       20.57024       25.11438
C         34.41979       21.33241       24.55223
H         33.18870       20.71782       26.19928
H         33.37784       19.49664       24.95339
H         35.35281       20.94649       24.97672
H         34.35345       22.39824       24.79501
H         34.47885       21.23880       23.46259
C         21.28703       21.42701        9.10643
C         21.56091       21.85729        8.01962
C         21.86132       22.42591        6.69962
C         22.82000       23.60078        6.79834
H         22.28951       21.66489        6.04663
H         20.93446       22.73794        6.21412
H         23.00192       24.03758        5.81127
H         23.78460       23.27571        7.19621
H         22.43304       24.38839        7.45442
C         12.12786       22.20856       25.01940
C         11.29506       22.74929       25.69578
C         10.21275       23.35474       26.48794
C         10.58225       24.72115       27.02923
H          9.31521       23.44249       25.86632
H          9.95055       22.70784       27.32730
H          9.70381       25.22908       27.43931
H         11.00103       25.35701       26.24889
H         11.32388       24.63949       27.82682
C         15.07216       27.90106       22.18262
C         14.42749       28.78603       22.67098
C         13.61547       29.89808       23.17273
C         12.62801       29.43020       24.22458
H         14.25382       30.68540       23.58228
H         13.07895       30.34944       22.33380
H         11.92241       30.22438       24.48380
H         13.13372       29.14357       25.14187
H         12.07061       28.55378       23.88783
C         18.60002        9.12109       18.59612
C         18.24597        8.03569       18.22344
C         17.81055        6.71665       17.74305
C         17.14443        6.81164       16.38091
H         18.67046        6.04198       17.68226
H         17.11150        6.26820       18.45374
H         16.87726        5.81658       16.01142
H         17.80302        7.28478       15.64981
H         16.23288        7.41097       16.42262
C         26.39270       13.64685       13.65974
C         27.16343       12.89476       13.13198
C         28.08457       11.93363       12.55474
C         28.22291       10.21222        9.61379
H         28.81046       12.41925       11.90057
H         28.63445       11.39896       13.33183
H         28.35168        9.68204        8.67004
H         27.96592       11.25572        9.41698
H         27.42035        9.74018       10.18490
C         27.83449       15.04643       22.20919
C         28.57153       14.35361       22.85521
C         29.45000       13.48315       23.64647
C         30.69115       13.08835       22.87396
H         29.76159       13.99056       24.56062
H         28.90643       12.58387       23.95105
H         31.28246       12.36464       23.44456
H         31.31604       13.96271       22.67420
H         30.43609       12.64386       21.91085
C         22.08009       25.02733       12.09354
C         22.53850       25.76876       11.26953
C         23.06310       26.68769       10.25319
C         24.10567       27.61664       10.84598
H         23.49258       26.12401        9.42315
H         22.25282       27.26968        9.81231
H         24.64872       28.15279       10.06234
H         24.83083       27.06691       11.44770
H         23.63723       28.35310       11.49988
C         15.90284        9.08433       21.30485
C         15.49651        8.00786       20.95768
C         15.00197        6.70501       20.48531
C         13.53989        6.48270       20.82497
H         15.11254        6.64577       19.39797
H         15.60210        5.89814       20.91933
H         13.20267        5.51326       20.44306
H         12.91069        7.25535       20.37757
H         13.37478        6.49683       21.90476
C         30.88861       15.98968       18.44999
C         31.98372       15.51236       18.55423
C         33.27816       14.84593       18.66063
C         34.20435       13.95797       22.21830
H         33.35337       14.01948       17.94847
H         34.10124       15.54026       18.47143
H         34.69176       13.65731       23.14664
H         33.63613       13.11747       21.81307
H         33.52674       14.79093       22.41539
C         29.12119       16.39379       13.58257
C         29.99306       15.89819       12.92244
C         31.10853       15.33472       12.15242
C         30.66450       14.82781       10.79761
H         31.89475       16.08485       12.01944
H         31.55614       14.51121       12.70684
H         31.46487       14.26090       10.31182
H         30.40076       15.66587       10.14486
H         29.79478       14.17095       10.88583
C         15.87094       18.63859       30.92877
C         15.31878       18.84747       31.97573
C         14.53005       19.04790       33.20273
C         15.19108       20.01852       34.15861
H         13.53590       19.42879       32.94300
H         14.38542       18.08864       33.71080
H         14.59973       20.13489       35.07187
H         15.28766       21.00765       33.69916
H         16.18397       19.66005       34.44916
C         16.20943       29.13446       13.61618
C         15.55921       29.89035       12.94605
C         14.73708       30.79494       12.13066
C         15.40786       32.13833       11.91548
H         14.52107       30.33688       11.16228
H         13.76942       30.95379       12.61120
H         14.77887       32.78429       11.29407
H         16.37582       32.02567       11.41592
H         15.57143       32.64894       12.86935
C         23.60663       13.59053       10.87319
C         24.17946       12.82626       10.14620
C         24.90605       11.86740        9.30772
C         23.97746       10.96995        8.50998
H         25.56576       12.39372        8.61286
H         25.54048       11.25152        9.95109
H         24.55739       10.19724        7.99331
H         23.42930       11.54218        7.75470
H         23.24421       10.47187        9.15199
C         12.08431       15.00484       17.79146
C         11.23404       14.36951       17.22872
C         10.13776       13.65251       16.55878
C         10.59867       12.38846       15.86976
H          9.35145       13.40581       17.27920
H          9.69032       14.30145       15.80504
H          9.80131       11.95577       15.25880
H         10.92377       11.64060       16.58660
H         11.44965       12.57669       15.22600
C         30.84445       21.42985       18.58988
C         31.93475       21.82121       18.27234
C         33.26241       22.31671       17.88021
C         33.16034       23.47627       16.90201
H         33.81823       22.63876       18.76658
H         33.84032       21.50734       17.42208
H         34.15699       23.82289       16.61067
H         32.61465       24.32219       17.33178
H         32.63174       23.17993       15.99459
C         15.86444       21.30798        9.08527
C         15.43189       20.98928        8.01085
C         14.87983       20.58707        6.70882
C         14.06166       19.31038        6.81922
H         14.24698       21.38427        6.30477
H         15.69543       20.43795        5.99397
H         13.80766       18.92972        5.82465
H         13.12998       19.48600        7.36433
H         14.60251       18.52668        7.35434
C         27.73607       19.54175       12.10740
C         28.55618       19.96984       11.33932
C         29.62877       20.39846       10.42433
C         29.25255       21.62357        9.61562
H         30.53357       20.61723       10.99974
H         29.88259       19.58509        9.73681
H         30.11396       22.00635        9.06031
H         28.90630       22.42894       10.25970
H         28.45652       21.39685        8.90057
C         12.20366       12.19564       20.45238
C         11.41081       11.45432       19.93633
C         10.40721       10.58019       19.31051
C         10.62939        9.11243       19.61495
H          9.39920       10.87361       19.62113
H         10.44542       10.69931       18.23012
H         10.00332        8.49340       18.96249
H         10.37858        8.87786       20.65297
H         11.66906        8.82638       19.44776
C          9.07962       18.69665       18.61379
C          7.99451       18.31843       18.26641
C          6.70926       17.72323       17.88303
C          5.92060       18.54517       16.89700
H          6.89940       16.75150       17.41685
H          6.09820       17.56959       18.77796
H          4.95124       18.07737       16.69385
H          6.45851       18.60544       15.94702
H          5.73686       19.55153       17.28373
C         25.04723       12.16477       22.11089
C         25.70083       11.35939       22.71286
C         26.37741       10.35363       23.53225
C         27.57720        9.71611       22.88940
H         26.69046       10.79541       24.47772
H         25.66903        9.55553       23.74193
H         28.07417        9.04286       23.59641
H         28.29676       10.47271       22.58114
H         27.26711        9.12217       22.02796
C         29.15221       13.65435       16.28790
C         29.97183       12.88728       15.85928
C         30.96783       11.88613       15.45269
C         31.69312       12.25549       14.17746
H         31.69637       11.73695       16.25652
H         30.47850       10.92676       15.29358
H         32.38611       11.45876       13.88773
H         32.27248       13.17315       14.31253
H         30.99058       12.39948       13.35074
C         21.36225       18.55060       30.86256
C         21.69033       18.08847       31.92137
C         22.12841       17.45658       33.17399
C         21.34012       17.95783       34.37308
H         22.02272       16.37036       33.09667
H         23.19668       17.64284       33.32756
H         21.72748       17.50927       35.29399
H         20.27993       17.70477       34.28956
H         21.39760       19.04576       34.47376
C         17.79871       12.08734       15.05911
C         17.28405       11.19626       14.44140
C         16.69413       10.07308       13.70087
C         15.67659       10.55788       12.68609
H         17.47931        9.50788       13.19127
H         16.21534        9.37585       14.39540
H         15.23439        9.71882       12.14124
H         16.13530       11.23303       11.96048
H         14.86796       11.10252       13.17633
C         14.97205       17.83981       12.04850
C         14.34604       17.31839       11.16555
C         13.63992       16.67132       10.05055
C         12.14318       16.82438       10.11990
H         14.01127       17.04112        9.09120
H         13.82763       15.60694       10.06716
H         11.64661       16.15431        9.41032
H         11.87700       17.84073        9.85665
H         11.76390       16.60297       11.11840
C         12.16831       19.56147       27.78763
C         11.35907       20.09389       28.50069
C         10.33979       20.75271       29.33598
C          9.97737       19.95094       30.57015
H         10.69048       21.73244       29.66409
H          9.43515       20.93175       28.74593
H          9.29431       20.52991       31.20223
H         10.86291       19.70764       31.16621
H          9.47549       19.01771       30.29780
C         26.30055       29.12804       23.57412
C         26.95885       29.98786       24.08608
C         27.74353       31.04862       24.69995
C         29.37165       31.35804       27.85012
H         28.66268       31.23943       24.13940
H         27.17331       31.98013       24.75739
H         29.91051       31.54665       28.77871
H         29.85635       30.54283       27.30740
H         28.33887       31.08365       28.07787
C         16.35852       10.81467       26.42846
C         15.93977        9.95680       27.16017
C         15.57550        8.83418       28.04274
C         14.08861        8.74661       28.32589
H         15.89998        7.89672       27.57765
H         16.11240        8.91986       28.99438
H         13.83672        7.78102       28.77610
H         13.49458        8.86098       27.41657
H         13.78055        9.51919       29.03470
C         15.92340       30.92506       18.63929
C         15.50927       32.01613       18.92406
C         14.94008       33.31387       19.31607
C         15.92392       34.45338       19.11414
H         14.03012       33.51648       18.74111
H         14.64032       33.27119       20.36953
H         15.56000       35.36058       19.60821
H         16.05736       34.67409       18.05087
H         16.91087       34.21814       19.51971
C          9.05428       24.08816       18.68424
C          7.94688       24.47743       18.94136
C          6.59141       24.96651       19.23783
C          6.61510       26.33036       19.90679
H          6.00857       25.03250       18.31326
H          6.07498       24.25514       19.88998
H          5.59876       26.66123       20.14346
H          7.08218       27.08531       19.26575
H          7.17448       26.29738       20.84205
C         21.29815        9.09923       15.88758
C         21.00536        8.01406       15.46349
C         20.63689        6.69879       14.91933
C         19.85661        6.82887       13.61959
H         21.53586        6.09885       14.74206
H         20.03297        6.15329       15.65125
H         19.48626        5.84930       13.29929
H         20.48703        7.23206       12.82035
H         18.99558        7.49640       13.72693
C         13.62209       26.43078       13.54902
C         13.02488       27.15394       12.80254
C         12.30290       28.04479       11.89191
C         10.95340       27.46660       11.53102
H         12.17254       29.02559       12.35281
H         12.87877       28.20983       10.98118
H         10.33715       28.20183       11.00545
H         10.42044       27.13830       12.42523
H         11.07229       26.59593       10.88403
C         30.87373       24.11102       21.27544
C         31.92592       24.58180       20.93678
C         33.16462       25.22700       20.47761
C         34.37346       24.78814       21.28288
H         33.33468       24.99270       19.42339
H         33.06075       26.31601       20.54147
H         35.28168       25.24899       20.87958
H         34.50224       23.70107       21.25055
H         34.27864       25.08778       22.33168
C         24.82870       22.23936       12.01197
C         25.44735       22.76488       11.12754
C         26.27613       23.32035       10.04995
C         25.65202       24.50443        9.35156
H         27.22893       23.64496       10.47397
H         26.48208       22.54555        9.30646
H         26.34339       24.93309        8.61889
H         25.40388       25.28702       10.06335
H         24.73137       24.22562        8.84196
C         24.04071       30.89050       21.33518
C         24.48563       31.97491       21.07280
C         25.10016       33.26189       20.71648
C         24.07912       34.38347       20.65974
H         25.88096       33.52190       21.43975
H         25.59021       33.16585       19.74048
H         24.49909       35.25527       20.14705
H         23.77441       34.69172       21.66423
H         23.17385       34.07971       20.13225
C         10.81167       16.34160       26.38330
C          9.98674       15.85303       27.10709
C          8.98557       15.31863       28.04125
C          8.61534       13.88294       27.72445
H          9.37855       15.37062       29.05924
H          8.08150       15.93665       28.02738
H          8.18764       13.38941       28.60324
H          9.47925       13.30234       27.39509
H          7.86676       13.85009       26.93007
C          9.02095       21.48177       15.84702
C          7.93853       21.31056       15.35106
C          6.63984       21.02074       14.71984
C          6.01454       22.20027       14.00908
H          6.75428       20.18857       14.01491
H          5.92517       20.70902       15.48056
H          5.04828       21.90526       13.58355
H          6.64354       22.55101       13.19390
H          5.84165       23.03439       14.69545
C          9.10901       21.37928       21.38814
C          8.03596       21.74928       21.77983
C          6.76149       22.24182       22.31943
C          5.60944       21.30562       21.99836
H          6.84749       22.35787       23.40566
H          6.54375       23.23672       21.91931
H          4.69253       21.65450       22.48524
H          5.81000       20.28634       22.34418
H          5.42592       21.25850       20.92022
C         18.55989       30.91788       15.80968
C         18.80931       31.98837       15.32298
C         19.19528       33.27365       14.71942
C         18.25072       33.74845       13.63520
H         19.25510       34.04128       15.49872
H         20.19007       33.17316       14.27228
H         18.59986       34.70550       13.23059
H         17.23960       33.89661       14.02455
H         18.20806       33.03308       12.80829
C         29.22024       23.60242       26.34052
C         30.13451       23.98878       27.01807
C         31.29961       24.33410       27.84837
C         31.00307       25.47769       28.79522
H         31.59303       23.45766       28.43772
H         32.15403       24.59841       27.21663
H         31.81029       25.60732       29.52252
H         30.08067       25.28563       29.34147
H         30.88963       26.42012       28.25513
C         19.57832       12.20108       27.80788
C         20.02186       11.46154       28.64610
C         20.43987       10.57107       29.74367
C         21.39741        9.48701       29.29067
H         20.91455       11.15368       30.53997
H         19.55560       10.09803       30.18326
H         21.56652        8.75671       30.08773