17
	Energy:      16.0900810
C         -6.61067        1.64103       -0.13666
C         -5.23820        2.03972       -0.07259
C         -4.90392        3.39565       -0.04399
H         -5.68275        4.15379       -0.06756
C         -3.56396        3.78441        0.01402
C         -2.55797        2.81859        0.04372
H         -3.30575        4.83990        0.03534
C         -2.88977        1.46401        0.01632
H         -1.51498        3.12168        0.08800
C         -4.22940        1.07407       -0.04168
H         -2.10615        0.71128        0.03945
H         -4.48068        0.01657       -0.06344
C         -7.76304        1.30673       -0.19449
C         -9.16556        0.90026       -0.26849
H         -9.73417        1.30804        0.57265
H         -9.25675       -0.18980       -0.24342
H         -9.62575        1.25801       -1.19448
