7
	Energy:      50.7300649
C         -1.35729       -0.21147        0.67754
C          0.00000        0.00000        0.00000
F         -2.24877        0.75228        0.33482
F         -1.91335       -1.40073        0.33477
F          0.87985       -0.96290        0.40710
F          0.54521        1.18493        0.40711
F         -1.25685       -0.19586        2.02832
