10
	Energy:      -1.2329173
C         -1.33117       -0.37785        0.65649
C          0.00000        0.00000        0.00000
H          0.77885       -0.69236        0.34119
H          0.29780        0.99842        0.34205
C         -1.22548       -0.36736        2.17419
H         -1.64732       -1.37597        0.32873
H         -2.11765        0.32255        0.34909
H         -0.47778       -1.08823        2.52003
H         -0.94319        0.62453        2.54130
H         -2.18744       -0.63455        2.62274
