13
	Energy:      -1.4151884
C         -1.35181       -0.29996        0.65719
C          0.00000        0.00000        0.00000
C         -1.23484       -0.32120        2.18217
H         -1.73343       -1.26875        0.30946
H         -2.08788        0.45704        0.35723
C         -2.58210       -0.57089        2.84112
H         -0.83179        0.63344        2.53991
H         -0.53331       -1.10555        2.48919
H         -3.29258        0.22396        2.59266
H         -3.00744       -1.52607        2.51700
H          0.73900       -0.73461        0.34117
H          0.35280        0.98055        0.34155
H         -2.47208       -0.59947        3.92969
