11
	Energy:      13.2170873
C          0.00000        0.00000        0.00000
C         -1.07486        0.09420        0.79962
C         -0.96817        0.07590        2.29936
H         -2.07188        0.18458        0.36921
C         -2.33140        0.13714        2.97376
H         -0.45800       -0.84035        2.61882
H         -0.36986        0.93108        2.63431
H         -2.96308       -0.70420        2.66932
H         -2.85460        1.06595        2.72227
H         -2.21667        0.09803        4.06177
H          0.99345       -0.08857        0.42708
