19
	Energy:      -1.8677381
C         -1.36511       -0.24427        0.65239
C          0.00000        0.00000        0.00000
C         -1.26683       -0.22609        2.17984
H         -1.76784       -1.21183        0.32581
H         -2.07846        0.52313        0.32509
C         -2.63335       -0.46790        2.82334
H         -0.86988        0.74104        2.51166
H         -0.56165       -0.99736        2.51254
C         -2.54470       -0.45031        4.34884
H         -3.02979       -1.43485        2.49007
H         -3.33825        0.30264        2.48806
C         -3.90404       -0.69133        4.98617
H         -2.15431        0.51610        4.68851
H         -1.84502       -1.22172        4.69076
H         -4.61955        0.08175        4.68821
H         -4.30808       -1.66522        4.69160
H          0.70504       -0.76684        0.34226
H          0.39493        0.96404        0.34202
H         -3.82011       -0.67427        6.07725
