4
	Energy:      44.7438693
C          0.00000        0.00000        0.00000
F         -1.19877        0.38760        0.50481
F          0.93504        0.84437        0.50481
F          0.26372       -1.23195        0.50482
