4
	Energy:      -0.0291448
C          0.00000        0.00000        0.00000
H         -0.96967        0.31730        0.39567
H          0.75963        0.68111        0.39567
H          0.21005       -0.99841        0.39567
