3
	Energy:       0.3607703
C          0.00000        0.00000        0.00000
O         -1.13746       -0.06043        0.55002
O          1.13746        0.06043        0.55002
