5
	Energy:     -38.6255515
C          0.00000        0.00000        0.00000
O         -1.06550       -0.06629        0.58044
O          1.14407        0.05289        0.71578
H          0.93269       -0.17381        1.65415
H          1.92372       -0.37316        0.29548
