4
	Energy:     -21.8477009
C          0.00000        0.00000        0.00000
O         -1.06067        0.09860        0.59424
O          1.16609       -0.10840        0.66762
H          0.90905       -0.08450        1.61406
