4
	Energy:       0.0561062
N          0.00000        0.00000        0.00000
H          0.40546       -0.87506        0.35437
H         -0.96078        0.08378        0.35437
H          0.55271        0.78755        0.36036
