2
	Energy:     -18.1117900
O          0.00000        0.00000        0.00000
H          0.12470        0.86577        0.41713
