    1171
 i =      134, E =     -3593.7989912067
 Si        14.5245759075       14.4588325898       20.0009710237
 Si        14.5267557324       14.4670470810       25.5023765738
 Si        14.5328247059       19.9449949969       14.5225886219
 Si        14.6368926193       19.9502273767       20.0058948701
 Si        14.5330959258       19.9599879376       25.4852283665
 Si        14.5383037786       25.4320237189       14.5070437797
 Si        14.5338622729       25.4419444935       19.9980390607
 Si        20.0092768271       14.4435391585       14.5201106342
 Si        20.0100810220       14.5715419275       20.0064030247
 Si        20.0159606365       14.4713292454       25.4941387662
 Si        20.0177107844       19.9383299658       14.6292610099
 Si        20.0165779264       19.9501914553       19.9971974047
 Si        20.0189371675       19.9521353760       25.3782953736
 Si        20.0267312446       25.4349203955       14.5066575734
 Si        20.0226947190       25.3222643760       19.9952837729
 Si        20.0085860235       25.4504783858       25.4834032450
 Si        25.5103970140       14.4348176527       14.5279394973
 Si        25.4971705116       14.4695725711       20.0193768357
 Si        25.5080777310       19.9428964225       14.5159065295
 Si        25.3903552181       19.9401224284       20.0034322091
 Si        25.4903817810       19.9457798946       25.4913828333
 Si        25.5178769411       25.4383480119       20.0009097362
 Si        25.5075061312       25.4416660141       25.4905010273
 Si        14.5876239772       11.7504003658       22.7606660287
 Si        14.5084357483       17.2192355567       17.2775370888
 Si        14.5811041638       17.1972683656       22.7643514973
 Si        14.5916712660       17.1960697812       28.2015966091
 Si        14.5892995576       22.6809875669       11.7846279617
 Si        14.5694162959       22.7105584535       17.2361059257
 Si        14.5042698729       22.6821957606       22.7297193157
 Si        14.6005609760       28.1359974267       17.2345270898
 Si        20.1141024546       11.7592728211       17.3687528349
 Si        19.9292763812       11.7836175682       22.6515582374
 Si        20.1028603842       17.2804175805       11.8284944428
 Si        20.0101282629       17.1975680818       17.2571797668
 Si        20.0159763503       17.2089285526       22.7406111068
 Si        19.9302622215       17.3165992256       28.1981766863
 Si        19.9381568756       22.5793729051       11.8155039951
 Si        20.0234388656       22.6884296716       17.2489797389
 Si        20.0155893189       22.6957804816       22.7414378727
 Si        20.0937061321       22.5974483849       28.1557729809
 Si        19.9487505866       28.1184375647       17.3444320071
 Si        20.1046871406       28.1368278569       22.6345102345
 Si        25.4484180166       11.7376725238       17.2670428447
 Si        25.4466632499       17.1739762618       11.8137600042
 Si        25.4658994782       17.1679593235       17.2414867704
 Si        25.5173417424       17.2265610741       22.7395029451
 Si        25.5247858610       22.6722417714       17.2721879873
 Si        25.4619324135       22.7069348648       22.7608602083
 Si        25.4341924683       22.7137692959       28.2098054374
 Si        25.4478137991       28.1505907483       22.7540396491
 Si        11.8349482627       17.3035837600       20.0984059007
 Si        11.8337570102       17.2087295032       25.4374311366
 Si        11.8184493440       22.7079824153       14.5599352699
 Si        11.8373604671       22.5937526330       19.9151942601
 Si        17.3739914407       11.7660714000       20.0935665994
 Si        17.2643009057       11.7571577145       25.4396510172
 Si        17.2741670768       17.1997842785       14.4856257560
 Si        17.2748343415       17.2029746523       19.9961771591
 Si        17.2603322386       17.1951512183       25.4489980316
 Si        17.2511204152       22.7090922199       14.5427917422
 Si        17.2761574197       22.6902613033       20.0010057224
 Si        17.2871211685       22.6883890727       25.4968321667
 Si        17.2668178069       28.1284719217       14.5688084088
 Si        17.3874509875       28.1297013390       19.8966627816
 Si        22.7707698056       11.7237833717       14.5842574540
 Si        22.6656045352       11.7732323330       19.9272027805
 Si        22.7779744044       17.1788210448       14.5694460673
 Si        22.7525741471       17.2043885381       20.0045555653
 Si        22.7383887960       17.2248160439       25.5173288929
 Si        22.7542771156       22.6694392274       14.4815486121
 Si        22.7618652865       22.6932796112       19.9915685527
 Si        22.7883056949       22.7191205161       25.4483588546
 Si        22.6685389270       28.1181038357       20.0823004778
 Si        22.7780809141       28.1440302464       25.4149412827
 Si        28.2064543516       17.1728573318       14.5893075377
 Si        28.2063976506       17.2961683402       19.9295838793
 Si        28.2014619077       22.5901116748       20.0854605351
 Si        28.2108559742       22.6933195410       25.4374633365
 Si        11.8345861793       14.5410910021       22.7794306243
 Si        11.8282873319       20.0323735727       17.3552255800
 Si        11.8225721086       19.8684567205       22.6530047267
 Si        11.8290287231       25.3737310056       17.2391296555
 Si        17.2781799597       14.4262182166       17.2701725408
 Si        17.2445473997       14.5041173703       22.7740876237
 Si        17.2637003213       14.5333378994       28.2061095519
 Si        17.3832806421       20.0209784029       11.8320574963
 Si        17.2759710110       19.9427823037       17.2583934802
 Si        17.2792475648       19.9562737132       22.7404713001
 Si        17.3576680325       19.8728368175       28.1828721625
 Si        17.2698674959       25.3629833530       11.7852130546
 Si        17.2636096803       25.3840756415       17.2366302641
 Si        17.2822898543       25.4676055797       22.7228729623
 Si        22.7879221589       14.5036928559       11.8387957175
 Si        22.7773228638       14.4905824567       17.2466396669
 Si        22.7432455259       14.4456813079       22.7437708723
 Si        22.6623496552       19.8354803001       11.8235171382
 Si        22.7623404533       19.9448465173       17.2627825970
 Si        22.7510419131       19.9489510853       22.7407077622
 Si        22.6556156826       20.0432880754       28.1944486182
 Si        22.7645844707       25.4589504101       17.2557849606
 Si        22.7794695546       25.3920321175       22.7611650968
 Si        22.7568165409       25.3853650396       28.1958068818
 Si        28.2271805370       14.5079995949       17.2760637591
 Si        28.1859614452       19.8515844366       17.3704198763
 Si        28.1864042765       20.0385655695       22.6497092046
 Si        28.2043359877       25.3634393759       22.7736002714
 Si        13.1261374933       15.8787894554       18.6858723953
 Si        13.2313155524       15.8284793686       24.1536696923
 Si        13.1765254003       21.3271273709       13.1592321705
 Si        13.3146530947       21.3141911136       18.6314595711
 Si        13.1229310449       21.2750926026       24.0725821992
 Si        13.1774929493       26.7943300606       18.6053831942
 Si        19.1616574456       10.5259339336       19.1511595696
 Si        18.1610746768       10.5336813247       23.6041472693
 Si        18.6906534587       15.8564553702       13.1147000595
 Si        18.6294927747       15.8495232258       18.6143211900
 Si        18.6471371367       15.8405767888       24.1140970121
 Si        18.1503623499       16.3679001372       29.4348600640
 Si        18.6567337090       21.3110748434       13.3042874608
 Si        18.6485136223       21.3203347499       18.6245100892
 Si        18.6382945481       21.3351536362       24.0895326328
 Si        19.1394949668       20.8295494932       29.4061090083
 Si        18.6354004619       26.7875805043       13.1401854138
 Si        18.6618124305       26.6438861775       18.6200824226
 Si        18.6925079856       26.8507766268       24.0631696993
 Si        23.6155333874       10.5087220867       18.1592909320
 Si        24.1668677940       15.7996631787       13.2265781873
 Si        24.1238267415       15.8304863322       18.6377976989
 Si        24.1058173735       15.8611028160       24.1079684407
 Si        24.0901003681       21.2499730783       13.1045744537
 Si        24.1098494326       21.3256816038       18.6205808548
 Si        24.1260234598       21.3165680245       24.1088000077
 Si        23.5923493303       21.8314203808       29.4345872207
 Si        24.1014834531       26.8340742290       18.6769088033
 Si        24.1641366596       26.7483472983       24.1350547911
 Si        29.4567413682       16.3566306954       18.1457848946
 Si        29.4348924855       20.8011813142       19.1456320246
 Si        29.4365657554       21.8119110921       23.5945843851
 Si        10.5871889873       16.3576365948       21.8817328683
 Si        10.5938192872       21.8146185692       16.3996710704
 Si        10.5943373992       20.8134427076       20.8610313391
 Si        16.4285705785       10.5220651187       21.8768601284
 Si        15.9113542676       15.8443384358       15.9090842395
 Si        15.9015513708       15.8361445337       21.3696714912
 Si        15.8811792490       15.8149715910       26.8059889298
 Si        16.4326124388       21.7849051749       10.5712066362
 Si        15.9077156230       21.3177313671       15.8888354774
 Si        15.9269107567       21.3355173256       21.3847244972
 Si        15.9446257878       21.2853147860       26.8803190146
 Si        15.8856153592       26.7357625808       15.8566811246
 Si        15.9522417474       26.8522704032       21.3078641439
 Si        21.8874076841       10.4984852538       16.4223342104
 Si        20.8811894772       10.5423104553       20.8768291248
 Si        21.8831982872       16.3197690278       10.5972410514
 Si        21.3832198544       15.8209588738       15.8927852361
 Si        21.3953799620       15.8565325507       21.3875899466
 Si        21.3300566448       15.8885215426       26.8976524564
 Si        20.8810928484       20.7866894959       10.5854717239
 Si        21.4079017628       21.3238877696       15.9084975145
 Si        21.3864153697       21.3252347804       21.3665160940
 Si        21.3928727735       21.3205055754       26.6958059007
 Si        21.3596475468       26.8421109591       15.9112268215
 Si        21.3874285239       26.6464178858       21.3665257399
 Si        21.4032982080       26.8064562438       26.8351276546
 Si        26.8309645920       15.7733228692       15.8729277695
 Si        26.9041284887       15.8775819423       21.3402947773
 Si        26.9067166002       21.2621737717       15.9365192180
 Si        26.7147151317       21.3152668097       21.3636536923
 Si        26.8350392374       21.3366141225       26.8465501840
 Si        26.8729824057       26.7915595671       21.4004828129
 Si        10.5980932778       19.0846751815       19.1438312283
 Si        10.5864031883       18.0883807704       23.6110341023
 Si        10.6005335143       23.5416264646       18.1336889728
 Si        15.9400818606       13.0517477732       18.6877256394
 Si        15.8639850438       13.1432083571       24.1593148419
 Si        15.9414126062       18.6236139869       13.1140067598
 Si        15.9249948438       18.5677446589       18.6226024978
 Si        15.9111564560       18.5898101314       24.1143536495
 Si        16.4165812855       18.0932268015       29.4331300959
 Si        15.8670537770       24.0861349327       13.1735664339
 Si        15.9064160589       24.0618196175       18.6306743926
 Si        15.9176541855       24.0512874423       24.0866432512
 Si        16.4397150895       29.3665805743       18.1161998885
 Si        21.4015803437       13.0808908021       13.1677720807
 Si        21.3842162137       13.2453170419       18.6469848753
 Si        21.3382735916       13.0635696543       24.0842037129
 Si        21.3812995908       18.5634751597       13.3070643508
 Si        21.3832255505       18.5733018455       18.6279657131
 Si        21.3952784254       18.5664467585       24.0899414479
 Si        20.8632685198       19.1102899576       29.4291189636
 Si        21.3397048057       24.0108947783       13.1085663278
 Si        21.4059651446       24.0426275305       18.6032720637
 Si        21.3842297439       24.0656347096       24.1176048434
 Si        21.8543733093       23.5530655495       29.4138279032
 Si        20.8930979618       29.3567644208       19.1270255371
 Si        21.8830519977       29.3785251435       23.5874954571
 Si        26.8519219236       13.1052301766       18.6413220377
 Si        26.8604078998       18.5427463601       13.1689268262
 Si        26.7137608441       18.5614434531       18.6444246527
 Si        26.8994071756       18.6327392989       24.0795132168
 Si        26.9115534435       24.0176338120       18.6767120382
 Si        26.8134995345       24.0805255716       24.1556201601
 Si        13.1702110040       13.1179492069       21.4032052945
 Si        13.1272384143       18.6250798842       15.9339973257
 Si        13.3112730669       18.5856007108       21.3797421275
 Si        13.1835677545       18.5758873263       26.8530822981
 Si        13.2153198947       24.0902869804       15.8462262978
 Si        13.1356587983       24.0224753069       21.3151258878
 Si        18.6958656396       13.0393185187       15.9411475084
 Si        18.6383856678       13.2541316345       21.3766849045
 Si        18.6301908614       13.1159528792       26.8530126803
 Si        19.1597817835       19.0657772090       10.5943913559
 Si        18.6257582627       18.5523748392       15.9064243545
 Si        18.6450555294       18.5788835097       21.3676468158
 Si        18.6487184033       18.5909673648       26.7100110282
 Si        18.1593633757       23.5207097162       10.5661906583
 Si        18.6505278724       24.0580529405       15.8748113653
 Si        18.6340120267       24.0434889437       21.3805369955
 Si        18.6862967941       24.0339455414       26.8805569505
 Si        18.1733511269       29.3608627608       16.3907906314
 Si        19.1678655226       29.3696191489       20.8437235921
 Si        24.1572841899       13.1230852217       15.8707638917
 Si        24.0867244621       13.0655919034       21.3387267569
 Si        23.6094319433       18.0525140452       10.5801729336
 Si        24.1346465402       18.5731358680       15.8952061337
 Si        24.0994690538       18.5647838030       21.3857711796
 Si        24.0760046206       18.6327997663       26.8963367440
 Si        24.1223857425       24.0339385803       15.8948640257
 Si        24.1331785610       24.0633178675       21.3658263979
 Si        24.1605626193       24.1088620616       26.8150213772
 Si        23.6118849959       29.3684918297       21.8560015232
 Si        29.4338824777       18.0858814971       16.4102158526
 Si        29.4306674033       19.0866631380       20.8759888469
 Si        29.4364070185       23.5437101246       21.8655010357
  C        15.0242435100       28.0828825146       22.2665813329
  C        14.5486467892       29.0552167682       22.8394125638
  C        14.0128770645       30.2238682836       23.5211855894
  C        13.0796116665       29.8908070661       24.7015775379
  H        14.8600413430       30.8336092958       23.8771590583
  H        13.4785782820       30.8486963848       22.7865168856
  H        13.5994486747       29.2776079500       25.4479578495
  H        12.2052261562       29.3197977743       24.3641971520
  H        12.7226233799       30.8063698281       25.1907765590
  C        18.5678257338       15.8107503512       31.1108934400
  C        18.7924678253       15.3107359258       32.2061316987
  C        19.0980486223       14.7014031014       33.4934320192
  C        20.5638845455       14.2305219004       33.6063070099
  H        18.8728548332       15.4198121703       34.2988539977
  H        18.4197504845       13.8473542311       33.6546620339
  H        21.2541697671       15.0696998694       33.4511009800
  H        20.7869045159       13.4717040768       32.8455011403
  H        20.7638984945       13.7975768909       34.5949776176
  C        10.6165674468       26.3933774823       16.3525247243
  C         9.6837296641       27.0472198380       15.9031068971
  C         8.5434665304       27.7797925921       15.3717661554
  C         7.2565311183       26.9273893777       15.3174358298
  H         8.3727719113       28.6770585386       15.9892970624
  H         8.7873890446       28.1542826710       14.3632166090
  H         6.9841834179       26.5733884987       16.3201734124
  H         7.4057924737       26.0406885513       14.6879805119
  H         6.4188119895       27.5076425967       14.9099732475
  C        31.0901903811       18.5799200235       21.4020370168
  C        32.1777592359       18.1985613887       21.8153109245
  C        33.4724421152       17.7456588126       22.3013890178
  C        34.6339492651       18.0507101758       21.3325244170
  H        33.6685900898       18.2127318641       23.2806727918
  H        33.4217019582       16.6605536655       22.4924765300
  H        34.7310853505       19.1313608547       21.1676375409
  H        34.4557402875       17.5837379559       20.3556398089
  H        35.5848065271       17.6745663849       21.7314793481
  C        13.4680513306       13.4334346988       26.5435463098
  C        12.7322837962       12.7495973586       27.2415872814
  C        11.8676481709       11.9293251990       28.0743198657
  C        12.5302445476       10.6146969271       28.5324673422
  H        11.5633011652       12.5173187996       28.9558225920
  H        10.9414705898       11.7097252987       27.5181940751
  H        13.4493805086       10.8249008330       29.0940036521
  H        12.8120197754       10.0026578307       27.6663712821
  H        11.8520224139       10.0335303414       29.1702234721
  C        11.9768610550       14.8903385434       17.6880181858
  C        11.1302702294       14.2850599067       17.0434843143
  C        10.0920146603       13.5935856690       16.2958333754
  C         8.7113738167       13.6641181348       16.9801251658
  H        10.0335702770       14.0269512188       15.2841981860
  H        10.3825925164       12.5394908744       16.1537138519
  H         8.4013931589       14.7085244324       17.1168919991
  H         8.7524141899       13.2005205893       17.9739373838
  H         7.9497020995       13.1479375939       16.3817647817
  C        29.4140367951       13.4321276535       16.4196276617
  C        30.2922603483       12.6766663115       16.0215698510
  C        31.3527825850       11.7961867207       15.5518889791
  C        32.7226010181       12.4983067567       15.4337667026
  H        31.4318382004       10.9373483437       16.2393761601
  H        31.0665313725       11.3701146104       14.5752577260
  H        33.0389689712       12.8949190371       16.4071505888
  H        32.6698830171       13.3444155257       14.7367154318
  H        33.4904145532       11.8004637349       15.0754970393
  C         8.9270727672       24.0804988061       18.5858909031
  C         7.8210083465       24.5161720595       18.8813535924
  C         6.4991303965       25.0100942661       19.2418189710
  C         5.3487217133       24.1769232482       18.6368146066
  H         6.4130233789       25.0252504680       20.3413798707
  H         6.4064084670       26.0611718148       18.9214294480
  H         5.4239210435       23.1260314216       18.9457536711
  H         5.3848793933       24.1989749429       17.5403099720
  H         4.3736940797       24.5644254898       18.9594498775
  C        25.0805740798       27.9768733986       17.6646759080
  C        25.6707681726       28.7957189401       16.9719718573
  C        26.3677080406       29.7504732834       16.1249712819
  C        27.8871356199       29.8153745550       16.3754616348
  H        26.1715775633       29.4867241277       15.0736940244
  H        25.9237201421       30.7494691512       16.2703455143
  H        28.3436332764       28.8248970642       16.2546740895
  H        28.0963957703       30.1530782423       17.3970683038
  H        28.3683597731       30.5086012563       15.6734483046
  C         8.9347722177       18.5215382466       18.6932907902
  C         7.8452705158       18.0282306241       18.4304804070
  C         6.5624632721       17.4181865594       18.1118600968
  C         5.9326732978       17.9391572727       16.8042028575
  H         6.7014613818       16.3256000046       18.0505429644
  H         5.8697961482       17.5867045790       18.9528483405
  H         6.6086766487       17.7766045387       15.9550933994
  H         5.7372782950       19.0162723975       16.8717696263
  H         4.9848382120       17.4270578068       16.5947624428
  C        18.5814737361        8.8721746199       24.2001253575
  C        18.7878006839        7.8054563981       24.7660526102
  C        19.0353871275        6.5455156822       25.4547434130
  C        19.4405726025        5.3861865614       24.5209733386
  H        19.8207425242        6.7064425054       26.2118628848
  H        18.1296915040        6.2687781725       26.0196756992
  H        20.3675813567        5.6237020714       23.9851708392
  H        18.6641823408        5.1972894453       23.7693190133
  H        19.6018647581        4.4626184133       25.0918480731
  C        17.7111364499       24.9964074930       28.0722790681
  C        17.1165192142       25.5580230097       28.9836000487
  C        16.4194364860       26.2209614085       30.0763730695
  C        16.1455398987       27.7184759823       29.8250122830
  H        15.4713937230       25.6901307088       30.2666752059
  H        17.0171215440       26.1013511521       30.9955585833
  H        15.4979956013       27.8583895796       28.9518631280
  H        17.0833288692       28.2512196142       29.6284048027
  H        15.6579394175       28.1789166010       30.6939060569
  C        28.0041193449       19.4563784566       12.0910975931
  C        28.8405704940       19.9592534578       11.3517745212
  C        29.8198306996       20.5662476165       10.4605183632
  C        29.3230457505       20.7019476280        9.0058380136
  H        30.0980165850       21.5577640786       10.8554574926
  H        30.7453539139       19.9677565180       10.4844334554
  H        28.3955539390       21.2868508282        8.9631812916
  H        29.1104555770       19.7154528255        8.5747721425
  H        30.0743358669       21.2004662031        8.3795173342
  C        29.4133937515       23.4973498606       26.5369420195
  C        30.3012999825       23.7712155774       27.3358096272
  C        31.3559729540       24.0740097048       28.2941508475
  C        31.9964632980       25.4658998138       28.1147616805
  H        30.9460890086       23.9816327002       29.3135504567
  H        32.1353656326       23.2980854761       28.2123583041
  H        31.2460232399       26.2596710724       28.2281169756
  H        32.4403486877       25.5643645711       27.1163787785
  H        32.7838658076       25.6334184317       28.8612376803
  C        21.4032245696       24.1088654402       31.0828365999
  C        21.1236111045       24.5750011898       32.1805816420
  C        20.7846680152       25.1116052676       33.4915829765
  C        21.4090171023       24.3185077751       34.6593017752
  H        21.1066157838       26.1647516816       33.5425936777
  H        19.6875315510       25.1288203639       33.5975029823
  H        22.5047689752       24.3384398491       34.6027457277
  H        21.0978000784       23.2662013875       34.6278628902
  H        21.1047384844       24.7412550942       35.6256710275
  C        28.0653873991       17.5935374590       25.0028269872
  C        28.9296561357       16.8579830009       25.4620601291
  C        29.9553353350       15.9635312216       25.9768607773
  C        30.7399557574       16.5245553096       27.1786724085
  H        29.4817226623       15.0090342616       26.2588042058
  H        30.6496639107       15.7261406533       25.1537251268
  H        30.0650839598       16.7501974688       28.0142576093
  H        31.2555598331       17.4542703038       26.9079685090
  H        31.4881972977       15.8007900971       27.5271618964
  C        16.4152088692       10.5468995358       26.4957608482
  C        16.0350375959        9.6296924101       27.2138694814
  C        15.5742650763        8.5283106073       28.0475114006
  C        14.7466838014        7.4789473548       27.2759764284
  H        16.4497140643        8.0451808733       28.5120756054
  H        14.9750232601        8.9301835659       28.8809812108
  H        15.3313774499        7.0466661038       26.4539675563
  H        13.8519116162        7.9379481682       26.8369356943
  H        14.4253947534        6.6675489426       27.9418356711
  C         8.8987289688       15.8203514245       21.4857467126
  C         7.7710739151       15.3832031180       21.2909082468
  C         6.4428019906       14.8381654673       21.0446422920
  C         6.4690884289       13.4102907876       20.4569400326
  H         5.8735117466       14.8429055974       21.9884076904
  H         5.8978088518       15.5110294421       20.3623377437
  H         6.9827203578       12.7195955356       21.1383387628
  H         7.0041865442       13.3931596880       19.4989950611
  H         5.4505561635       13.0375255750       20.2877189916
  C        27.9439858357       11.9888176196       19.5759200521
  C        28.7087919153       11.1902038217       20.1022921181
  C        29.6295154184       10.2503428462       20.7281046762
  C        31.0382878197       10.2565353889       20.0976797665
  H        29.7059646546       10.4834076833       21.8030950395
  H        29.2017444543        9.2355975719       20.6729777873
  H        31.4811116363       11.2600401411       20.1412679105
  H        30.9958294966        9.9608254513       19.0415230387
  H        31.7044930396        9.5614625674       20.6253135569
  C        13.5730593161       29.3421329743       16.3487395507
  C        12.8977372034       30.2622555371       15.9048457359
  C        12.0925547259       31.3488746360       15.3638807494
  C        11.0945498082       30.8993857828       14.2758957264
  H        11.5464497654       31.8307100524       16.1915305009
  H        12.7654553272       32.1219224753       14.9571386904
  H        10.4214592072       30.1237558993       14.6628938189
  H        11.6244077623       30.4753789077       13.4141016836
  H        10.4882826289       31.7447076984       13.9259172355
  C        21.3464563205       21.2454067165        8.8941223418
  C        21.6691521613       21.5455222061        7.7518673975
  C        22.0861022395       21.9117238089        6.4062051177
  C        23.2815370037       22.8881614454        6.3839352630
  H        22.3414121545       20.9936131872        5.8515085656
  H        21.2313579130       22.3572106568        5.8710698929
  H        24.1339653147       22.4718145374        6.9359086504
  H        23.0133549072       23.8408028804        6.8580329924
  H        23.6028783089       23.0952814849        5.3550334411
  C        20.5552500746       12.0141364121       11.9572700853
  C        20.1963894990       11.3208298422       11.0118095648
  C        19.8030230515       10.5296091140        9.8516697512
  C        18.5571166098        9.6439199537       10.0582660171
  H        19.6325542375       11.2158496857        9.0045841855
  H        20.6568565090        9.8996178010        9.5526259960
  H        17.6887322044       10.2473287700       10.3510163735
  H        18.7275476191        8.9024131367       10.8488028872
  H        18.3045209025        9.1067803407        9.1349462604
  C        21.5073813933       31.0466748987       24.2002223446
  C        21.3800325924       32.1134335024       24.7903725398
  C        21.2496045252       33.3661909387       25.5235700996
  C        20.3312316028       34.4098516714       24.8574129661
  H        20.8806894019       33.1408187112       26.5380703079
  H        22.2553287446       33.7949093710       25.6639924566
  H        19.3058582880       34.0307125390       24.7711907170
  H        20.6841169559       34.6542296879       23.8473331501
  H        20.3052692752       35.3360710885       25.4460026031
  C        26.5869183066       26.4908747357       26.4915778530
  C        27.3473126099       27.2122617157       27.1224865647
  C        28.2240123196       28.0775263474       27.8930507106
  C        27.5521901085       28.6252128120       29.1680717260
  H        29.1364895967       27.5167613943       28.1571455650
  H        28.5556403354       28.9098788587       27.2499631882
  H        27.2231553335       27.7978400382       29.8076000012
  H        26.6619316622       29.2118495681       28.9134299361
  H        28.2428244433       29.2585621736       29.7391103910
  C        26.4451867951       29.3463181748       23.6885451036
  C        27.0650746647       30.2496001777       24.2357692017
  C        27.7647418765       31.3424259409       24.8962181575
  C        27.0330749499       32.6956236550       24.7710060620
  H        27.8997445359       31.0899895465       25.9617173219
  H        28.7813359599       31.4258798510       24.4784818557
  H        26.0230142955       32.6308433206       25.1951469049
  H        26.9292798436       32.9851992914       23.7175011592
  H        27.5834111606       33.4865826548       25.2969071960