963
	Energy:    5195.8105123
Si        14.65625       14.66305       19.97975
Si        14.66947       14.61485       25.32121
Si        14.70090       20.00266       14.71848
Si        14.77854       19.98008       20.02010
Si        14.70889       19.96457       25.27470
Si        14.62994       25.28668       14.69547
Si        14.65962       25.29584       19.98553
Si        19.98969       14.70396       14.69468
Si        19.98339       14.78726       19.99547
Si        19.96359       14.67550       25.26727
Si        20.00514       19.99609       14.79149
Si        19.99275       19.99317       20.00811
Si        20.00171       19.98224       25.20027
Si        19.95541       25.27537       14.71963
Si        19.97829       25.20394       20.02050
Si        19.99967       25.29943       25.31026
Si        25.26891       14.62973       14.70613
Si        25.25315       14.69645       19.96914
Si        25.31693       19.95783       14.67709
Si        25.21384       19.98320       19.99789
Si        25.30401       20.00676       25.31766
Si        25.28615       25.26574       20.00773
Si        25.38577       25.37604       25.40239
Si        14.70633       11.95560       22.67984
Si        14.68213       17.36570       17.37151
Si        14.72454       17.28547       22.67599
Si        14.72974       17.31512       27.93000
Si        14.69381       22.63796       12.01488
Si        14.71241       22.66136       17.33527
Si        14.66010       22.61622       22.64988
Si        14.68200       27.94716       17.28312
Si        20.03666       12.06759       17.41606
Si        19.91141       12.06378       22.54820
Si        20.10430       17.41264       12.06736
Si        19.99153       17.35765       17.35681
Si        19.98929       17.33962       22.63970
Si        19.90830       17.38061       27.92529
Si        19.91709       22.57628       12.07654
Si        19.98773       22.63142       17.36725
Si        19.99239       22.64511       22.65356
Si        20.06424       22.55915       27.91375
Si        19.91729       27.92065       17.42291
Si        20.07084       27.95323       22.57739
Si        25.24001       11.96981       17.29757
Si        25.25737       17.25795       12.07646
Si        25.25605       17.29474       17.31524
Si        25.29639       17.33751       22.62954
Si        25.31171       22.61525       17.35707
Si        25.27740       22.68934       22.70045
Si        25.31633       22.65367       28.05685
Si        25.24163       27.87848       22.67096
Si        12.05691       17.40438       20.08163
Si        12.04299       17.23285       25.35849
Si        12.00958       22.64434       14.69223
Si        12.06677       22.52017       19.94710
Si        17.41072       12.09285       20.06052
Si        17.31535       11.95702       25.28339
Si        17.36104       17.36950       14.67837
Si        17.34138       17.33752       20.00504
Si        17.31645       17.28578       25.24538
Si        17.30003       22.66767       14.74051
Si        17.33517       22.64415       20.01838
Si        17.37444       22.62516       25.29185
Si        17.29680       27.89350       14.70822
Si        17.41168       27.91837       19.90984
Si        22.61699       12.06193       14.76430
Si        22.54470       12.05524       19.91013
Si        22.66702       17.30524       14.74023
Si        22.63081       17.35048       19.99816
Si        22.63156       17.33246       25.30316
Si        22.64342       22.63667       14.68900
Si        22.64115       22.62729       20.01181
Si        22.69999       22.68313       25.29099
Si        22.56244       27.92274       20.07575
Si        22.67682       27.90797       25.26535
Si        27.93707       17.18716       14.68543
Si        27.94378       17.36818       19.91759
Si        27.95324       22.57597       20.05398
Si        28.01968       22.70212       25.31031
Si        12.02898       14.62029       22.70211
Si        12.06470       20.05003       17.45169
Si        12.03507       19.87029       22.60927
Si        11.95122       25.26142       17.30993
Si        17.35136       14.69277       17.34194
Si        17.29621       14.70470       22.66965
Si        17.26170       14.65792       27.96036
Si        17.43877       20.05849       12.08819
Si        17.34720       19.99863       17.36896
Si        17.34933       19.97972       22.64316
Si        17.42455       19.88137       27.89073
Si        17.23736       25.28724       12.03545
Si        17.30173       25.23907       17.33844
Si        17.29586       25.35488       22.68051
Si        22.69629       14.64999       12.02704
Si        22.64702       14.73275       17.33360
Si        22.62904       14.65917       22.63344
Si        22.59884       19.91208       12.05894
Si        22.64667       19.98419       17.35321
Si        22.64954       19.99976       22.65260
Si        22.57045       20.02491       27.93132
Si        22.62186       25.28782       17.38692
Si        22.67033       25.23599       22.68729
Si        22.70475       25.28278       28.01655
Si        27.95122       14.64060       17.33189
Si        27.91374       19.87956       17.39852
Si        27.90707       20.07593       22.57989
Si        27.97715       25.33850       22.68701
Si        13.30933       16.05196       18.69533
Si        13.43575       15.94022       24.00642
Si        13.40613       21.33378       13.40713
Si        13.54417       21.29892       18.69042
Si        13.33585       21.20806       23.91386
Si        13.35541       26.57572       18.60072
Si        19.03180       10.85189       19.05752
Si        18.30696       10.82284       23.55396
Si        18.75898       16.10895       13.35206
Si        18.66294       16.05668       18.66465
Si        18.65842       16.00957       23.93503
Si        18.26282       16.37323       29.15013
Si        18.66554       21.31781       13.56706
Si        18.66580       21.31763       18.69844
Si        18.66900       21.31295       23.92978
Si        19.05234       20.90622       29.09572
Si        18.64908       26.59215       13.37358
Si        18.65524       26.42835       18.68328
Si        18.72721       26.71184       23.97733
Si        23.52113       10.76755       18.28049
Si        23.98308       15.94879       13.44373
Si        23.93630       16.03746       18.67068
Si        23.94751       16.00960       23.95205
Si        23.95230       21.30521       13.30938
Si        23.93616       21.31207       18.67557
Si        23.97081       21.32498       23.97937
Si        23.56602       21.64993       29.15812
Si        23.92295       26.66953       18.72077
Si        24.01686       26.51301       24.02287
Si        29.19798       16.37548       18.23386
Si        29.12976       20.88847       19.05287
Si        29.15405       21.72629       23.54736
Si        10.87844       16.34512       21.72680
Si        10.83841       21.66384       16.40735
Si        10.81055       20.87596       20.95736
Si        16.43822       10.83556       21.68520
Si        16.05677       16.07819       16.05120
Si        16.01212       16.00528       21.31024
Si        15.97736       15.95024       26.55493
Si        16.44191       21.68194       10.85918
Si        16.02798       21.31768       16.05268
Si        16.04783       21.31778       21.34336
Si        16.12024       21.21833       26.60323
Si        15.97070       26.52387       15.99064
Si        16.00904       26.71385       21.25756
Si        21.67114       10.81853       16.42835
Si        20.88236       10.82927       20.89332
Si        21.74117       16.39264       10.80993
Si        21.30557       16.03436       16.04318
Si        21.31827       16.04484       21.32437
Si        21.21288       16.05500       26.61136
Si        20.94329       20.94064       10.86334
Si        21.32967       21.32072       16.06644
Si        21.31179       21.31390       21.33180
Si        21.33779       21.30059       26.44203
Si        21.23256       26.59849       16.11895
Si        21.31551       26.43289       21.34162
Si        21.41122       26.54066       26.59790
Si        26.55878       15.92424       15.99977
Si        26.66627       16.02370       21.28101
Si        26.64614       21.23584       16.07550
Si        26.44014       21.33357       21.31886
Si        26.66471       21.29859       26.62080
Si        26.58777       26.57896       21.33814
Si        10.79645       19.07679       19.10816
Si        10.84873       18.17859       23.63234
Si        10.84257       23.51693       18.32235
Si        16.09842       13.36933       18.72788
Si        15.97211       13.35856       24.00691
Si        16.04557       18.71376       13.33454
Si        16.05163       18.66398       18.68595
Si        16.03474       18.63882       23.94596
Si        16.41987       18.25126       29.14442
Si        15.93831       23.99174       13.41436
Si        16.01450       23.95057       18.68895
Si        15.95006       23.98119       24.01836
Si        16.41850       29.13765       18.23605
Si        21.32168       13.38806       13.39910
Si        21.29177       13.54269       18.66537
Si        21.26637       13.29158       23.91500
Si        21.34120       18.67789       13.55422
Si        21.31181       18.67702       18.68091
Si        21.32970       18.65482       23.93238
Si        20.90636       19.04040       29.14753
Si        21.21646       23.89696       13.39339
Si        21.31100       23.92557       18.69839
Si        21.32232       23.94770       23.97780
Si        21.69782       23.54699       29.14936
Si        20.90627       29.14967       19.07418
Si        21.75459       29.13009       23.58609
Si        26.53742       13.36757       18.65560
Si        26.63009       18.59675       13.34668
Si        26.44296       18.63710       18.67290
Si        26.60226       18.75876       23.88719
Si        26.64438       23.89989       18.73387
Si        26.61298       24.03235       24.05155
Si        13.38169       13.30217       21.31361
Si        13.34820       18.74825       16.10979
Si        13.53959       18.64246       21.33372
Si        13.40536       18.67244       26.62034
Si        13.36585       23.98144       15.99411
Si        13.32995       23.88359       21.24139
Si        18.68915       13.33312       16.03866
Si        18.66525       13.54845       21.31884
Si        18.63301       13.37703       26.57872
Si        19.07535       19.05667       10.86514
Si        18.66618       18.67967       16.06270
Si        18.67057       18.66340       21.31815
Si        18.67581       18.63548       26.42209
Si        18.27974       23.58982       10.85672
Si        18.64740       23.94079       16.05503
Si        18.63580       23.95338       21.36251
Si        18.74129       23.90586       26.64221
Si        18.27927       29.09644       16.37877
Si        19.05719       29.15054       20.92734
Si        23.96498       13.40003       16.02547
Si        23.88737       13.33802       21.22612
Si        23.59376       18.23925       10.83190
Si        23.96157       18.65975       16.02864
Si        23.93331       18.66088       21.32361
Si        23.93212       18.67583       26.67216
Si        23.94641       23.94960       16.06663
Si        23.95476       23.94447       21.33501
Si        24.07840       24.00750       26.64076
Si        23.59759       29.11746       21.70892
Si        29.15842       18.24538       16.37264
Si        29.10050       19.05383       20.93526
Si        29.16147       23.57373       21.70205
C          7.91996       19.43679       18.81035
C          9.13755       18.57074       18.49241
C          6.64281       18.86523       18.19016
H          8.07181       20.46133       18.45119
H          7.77964       19.48324       19.89303
C          5.42080       19.67795       18.58946
H          6.50107       17.82872       18.51686
H          6.73067       18.85308       17.09793
H          5.29131       19.68288       19.67683
H          5.50985       20.71449       18.24956
H          9.19628       18.45745       17.40218
H          8.92288       17.56410       18.85721
H          4.51789       19.24900       18.14365
C         13.43953        9.36852       23.07706
C         13.61387       10.78804       23.63782
C         12.45442        8.54926       23.91257
H         14.40402        8.84763       23.06597
H         13.08684        9.40876       22.03893
C         12.34955        7.12126       23.39894
H         11.46373        9.01688       23.88541
H         12.77778        8.53033       24.95956
H         11.99642        7.10139       22.36297
H         13.32086        6.61732       23.43940
H         13.98286       10.70999       24.66487
H         12.61889       11.23137       23.72611
H         11.64550        6.54811       24.01008
C         24.59359       16.31918       28.27795
C         25.08070       17.67952       27.77466
C         25.62769       15.61970       29.15970
H         24.38252       15.66582       27.42500
H         23.66398       16.43852       28.84641
C         25.16129       14.21912       29.53153
H         25.79623       16.20305       30.07172
H         26.58601       15.54926       28.63248
H         24.20883       14.25154       30.07045
H         25.02542       13.60209       28.63668
H         26.01892       17.51437       27.23110
H         25.33912       18.29450       28.64463
H         25.90007       13.72795       30.17187
C          8.32733       20.68260       22.43907
C          9.13866       21.50262       21.43096
C          6.94150       21.27218       22.69880
H          8.86187       20.65197       23.39549
H          8.21934       19.64886       22.09152
C          6.15593       20.40152       23.66982
H          6.38458       21.35998       21.75952
H          7.04109       22.27986       23.11838
H          5.97827       19.40740       23.24643
H          6.69583       20.27774       24.61459
H          9.26709       22.50442       21.86194
H          8.53887       21.65641       20.52773
H          5.18505       20.85537       23.89043
C         31.98485       23.07218       21.08252
C         30.88360       24.10713       21.31177
C         33.25902       23.75634       20.57343
H         31.67188       22.32075       20.35466
H         32.20098       22.54190       22.01773
C         34.39449       22.76768       20.37278
H         33.57753       24.53050       21.28153
H         33.05208       24.25775       19.62008
H         34.66870       22.28979       21.31824
H         34.11504       21.98759       19.65788
H         30.82397       24.75090       20.42420
H         31.23856       24.75684       22.11929
H         35.27854       23.28358       19.98413
C         13.02180       30.29449       16.94048
C         13.65266       29.08895       16.22636
C         12.23788       31.17519       15.96501
H         13.80193       30.90305       17.41399
H         12.35494       29.95490       17.74287
C         11.68815       32.41572       16.65281
H         11.40931       30.60358       15.53166
H         12.88695       31.48633       15.13802
H         11.01593       32.14595       17.47335
H         12.49830       33.02951       17.06027
H         14.28103       29.46961       15.41181
H         12.85797       28.51040       15.74152
H         11.12707       33.02796       15.93973
C         18.30206       28.58965       26.19044
C         17.68594       27.93199       24.95420
C         17.36713       29.61232       26.83683
H         19.24382       29.08463       25.93028
H         18.51906       27.81985       26.93734
C         18.01677       30.24306       28.06092
H         16.43309       29.12358       27.13698
H         17.11094       30.39773       26.11719
H         18.28600       29.48141       28.80038
H         18.92661       30.78635       27.78513
H         17.36983       28.72841       24.27023
H         16.77011       27.43264       25.27480
H         17.32977       30.94967       28.53640
C         12.59413       14.41307       16.38000
C         12.08299       15.09083       17.65387
C         11.51890       13.55627       15.71290
H         13.46507       13.78700       16.59962
H         12.91248       15.17565       15.66149
C         12.05838       12.88988       14.45644
H         10.65550       14.17838       15.45079
H         11.16731       12.78630       16.40738
H         12.39442       13.63638       13.73084
H         12.90827       12.24053       14.68915
H         11.61507       14.33339       18.29116
H         11.27390       15.77215       17.36142
H         11.28245       12.28061       13.98355
C         14.88032       13.70484       29.38831
C         16.37295       13.50152       29.12277
C         14.30583       12.60261       30.28138
H         14.32561       13.70892       28.44564
H         14.71571       14.67144       29.87507
C         12.79852       12.74610       30.43172
H         14.77595       12.64504       31.27049
H         14.52866       11.61723       29.85565
H         12.53486       13.72072       30.85450
H         12.29835       12.64668       29.46255
H         16.50160       12.48124       28.75338
H         16.89129       13.50672       30.08824
H         12.40729       11.96855       31.09513
C         29.81011       12.41818       17.17857
C         29.06536       13.49398       16.37150
C         30.64688       11.51248       16.27391
H         29.09820       11.79628       17.73068
H         30.45873       12.88073       17.93191
C         31.22358       10.33906       17.05187
H         31.46290       12.08950       15.82427
H         30.02985       11.12454       15.45505
H         31.84925       10.68412       17.88103
H         30.42378        9.71377       17.46313
H         28.46472       12.98934       15.60937
H         29.80015       14.08539       15.81521
H         31.83744        9.71286       16.39719
C         28.88130       27.88116       23.84728
C         29.22926       26.41601       23.56817
C         29.92561       28.57350       24.72373
H         27.91893       27.95059       24.35512
H         28.79137       28.42788       22.90060
C         29.57868       30.04220       24.92408
H         30.91835       28.49451       24.26750
H         29.97414       28.07797       25.70029
H         29.61896       30.58544       23.97439
H         28.57183       30.15830       25.33699
H         29.50680       25.93373       24.50843
H         30.14638       26.43339       22.97016
H         30.28562       30.51118       25.61513
C         14.42802       29.15675       21.64500
C         14.93222       27.85540       22.28085
C         13.50403       29.92764       22.58995
H         13.88569       28.94328       20.71960
H         15.27288       29.80318       21.38258
C         12.95583       31.17998       21.92192
H         14.05251       30.21117       23.49563
H         12.66723       29.29127       22.90006
H         13.76617       31.84725       21.61104
H         12.36422       30.92441       21.03656
H         14.05746       27.28774       22.60689
H         15.47081       28.12155       23.19405
H         12.30982       31.72854       22.61437
C          9.88280       12.68063       23.10082
C         10.90634       13.59511       23.78361
C          9.17704       11.76168       24.09869
H         10.36132       12.05730       22.34453
H          9.13104       13.28266       22.58110
C          8.15040       10.88262       23.39906
H          8.67870       12.35685       24.87191
H          9.91347       11.12277       24.59959
H          7.37107       11.49041       22.92772
H          8.62110       10.26930       22.62348
H         11.52823       12.99503       24.45618
H         10.34285       14.26829       24.43648
H          7.67026       10.21140       24.11759
C         25.90665        9.58486       15.71105
C         26.41174       10.88816       16.33302
C         27.04323        8.78309       15.07190
H         25.13616        9.78775       14.96004
H         25.45361        8.95937       16.48007
C         26.55091        7.42964       14.58063
H         27.84414        8.62199       15.80394
H         27.47375        9.34362       14.23522
H         26.14381        6.83729       15.40708
H         25.76758        7.54693       13.82509
H         26.86192       11.48420       15.53318
H         27.22985       10.62018       17.01241
H         27.37489        6.86403       14.13470
C         18.42297       16.84074       32.02884
C         18.74761       15.90073       30.86580
C         18.92977       16.25555       33.35149
H         17.33898       16.98947       32.09992
H         18.87667       17.82516       31.86580
C         18.59738       17.15174       34.53268
H         20.01558       16.11210       33.30350
H         18.48085       15.26870       33.51678
H         19.06345       18.13568       34.42241
H         17.51581       17.28976       34.62876
H         18.29698       14.92977       31.09941
H         19.82957       15.71423       30.86908
H         18.96513       16.70324       35.46129
C         28.60533       14.93964       12.92961
C         29.12317       16.20605       13.61607
C         29.66641       14.26312       12.06285
H         27.73734       15.17002       12.30556
H         28.28016       14.21950       13.68289
C         29.12513       12.97572       11.45592
H         30.55173       14.03186       12.66598
H         29.98123       14.93928       11.26020
H         28.83035       12.26747       12.23775
H         28.24943       13.17490       10.82947
H         29.51302       16.87053       12.83702
H         29.98891       15.92721       14.22901
H         29.88731       12.49669       10.83406
C         25.12590       17.88047        8.40109
C         24.07793       18.74167        9.12340
C         25.39838       18.39023        6.98511
H         24.81019       16.83271        8.35793
H         26.06642       17.88572        8.96047
C         26.49229       17.58012        6.30593
H         25.70312       19.44234        7.02001
H         24.48282       18.33599        6.38546
H         27.42685       17.62804        6.87470
H         26.20132       16.52904        6.21157
H         23.17826       18.81565        8.50187
H         24.47603       19.76347        9.17337
H         26.68715       17.97095        5.30236
C         10.11660       22.76571       12.50741
C         10.83282       23.58575       13.59329
C          9.06883       23.59285       11.76182
H          9.63039       21.88660       12.94929
H         10.84717       22.38933       11.78354
C          8.47842       22.81211       10.59635
H          9.51793       24.51761       11.38225
H          8.26513       23.87738       12.45072
H          9.24948       22.56894        9.85792
H          8.02528       21.87566       10.93711
H         10.06999       24.05897       14.21811
H         11.37234       24.40865       13.11020
H          7.70520       23.40250       10.09514
C          9.26069       25.93397       16.41913
C         10.74636       26.32964       16.35209
C          8.35785       26.86472       15.61110
H          8.91890       25.94358       17.46221
H          9.12589       24.91112       16.05095
C          6.92534       26.34637       15.59386
H          8.72200       26.94748       14.58128
H          8.37472       27.86869       16.04994
H          6.86884       25.37390       15.09281
H          6.53499       26.22788       16.61016
H         10.82948       27.35921       16.72128
H         11.05718       26.36281       15.30133
H          6.27266       27.04149       15.05725
C         12.84098       11.42441       19.12843
C         12.26008       12.15062       20.34283
C         11.82618       10.47489       18.49124
H         13.73458       10.85686       19.41182
H         13.13994       12.15618       18.37406
C         12.40921        9.80261       17.25730
H         10.92457       11.02964       18.20713
H         11.52360        9.70828       19.21335
H         12.72859       10.54468       16.51916
H         13.27700        9.18875       17.51888
H         11.88413       11.38636       21.03076
H         11.38509       12.71930       20.01226
H         11.66242        9.15603       16.78672
C         13.44808       25.26714       24.84518
C         14.89439       24.94990       25.23257
C         12.75968       26.20656       25.83383
H         12.86635       24.34225       24.78669
H         13.41620       25.72790       23.85783
C         11.31760       26.46288       25.41677
H         13.29683       27.16080       25.87812
H         12.77452       25.77127       26.83909
H         11.27161       26.91884       24.42200
H         10.74566       25.52926       25.38962
H         14.86313       24.40476       26.18331
H         15.40423       25.88824       25.45731
H         10.82921       27.13985       26.12402
C         26.10061       27.85868       26.78420
C         26.51854       26.42547       26.44711
C         27.08047       28.56525       27.72035
H         25.12305       27.85778       27.26030
H         26.01699       28.44952       25.86365
C         26.66363       30.01399       27.93855
H         28.09041       28.53609       27.30875
H         27.10494       28.04747       28.68914
H         26.66106       30.56656       26.99123
H         25.66048       30.07658       28.36677
H         26.70177       25.90707       27.38993
H         27.49918       26.47099       25.97066
H         27.35888       30.51449       28.61931
C         24.13787       12.19656       11.39293
C         23.70227       13.56889       10.86710
C         24.96535       11.38293       10.40099
H         23.24720       11.60696       11.63765
H         24.72459       12.31739       12.30907
C         25.28528       10.00991       10.98292
H         25.89846       11.90754       10.16988
H         24.41276       11.25710        9.46341
H         25.85228       10.09980       11.91578
H         24.36717        9.45225       11.19912
H         23.10374       13.39911        9.96415
H         24.59141       14.12315       10.54417
H         25.87951        9.42177       10.27756
C         22.20739       15.78225        8.00006
C         21.17085       15.94057        9.11285
C         21.60088       15.19698        6.72338
H         23.04066       15.15006        8.32603
H         22.61765       16.76425        7.75463
C         22.62425       15.15852        5.59735
H         20.74291       15.80079        6.40592
H         21.23438       14.18224        6.91524
H         22.98514       16.16512        5.36105
H         23.48657       14.54178        5.87008
H         20.60922       15.00106        9.19590
H         20.44048       16.68508        8.77386
H         22.17726       14.73839        4.69104
C         28.90614       19.48262       27.14703
C         27.79630       20.33325       27.77445
C         29.80483       18.84522       28.20814
H         29.52494       20.09251       26.48234
H         28.47294       18.68591       26.53749
C         31.00559       18.16102       27.57160
H         29.22956       18.11138       28.78429
H         30.16219       19.60647       28.91092
H         30.69193       17.41698       26.83411
H         31.64687       18.89082       27.06615
H         28.27449       21.05315       28.44874
H         27.18144       19.69191       28.41441
H         31.60495       17.65512       28.33467
C         31.95937       15.57235       17.67926
C         30.91638       15.93885       18.73788
C         33.28547       15.15709       18.32302
H         32.14738       16.42673       17.02860
H         31.60549       14.76358       17.03527
C         34.36222       14.92003       17.27509
H         33.14251       14.24198       18.90898
H         33.62752       15.93678       19.01376
H         34.06405       14.13362       16.57466
H         34.55922       15.83294       16.70325
H         31.32942       16.77309       19.30843
H         30.84800       15.10541       19.44917
H         35.29739       14.61390       17.75438
C         15.00324       27.02625       11.32499
C         16.30142       26.37480       10.83406
C         14.31829       27.86955       10.25064
H         15.19911       27.65822       12.19641
H         14.29810       26.25276       11.64134
C         12.98470       28.40491       10.75566
H         14.14411       27.26562        9.35291
H         14.96342       28.70777        9.96538
H         12.30498       27.58441       11.01031
H         13.12131       29.02280       11.64930
H         16.97720       27.16470       10.48349
H         16.06411       25.77953        9.94404
H         12.50274       29.01722        9.98760
C         10.64066       16.66533       27.86018
C         10.96672       16.15630       26.45118
C          9.81334       15.67510       28.67935
H         10.10390       17.62008       27.80111
H         11.56781       16.84423       28.40969
C          9.70051       16.13814       30.12669
H         10.28199       14.68464       28.66027
H          8.81241       15.57615       28.24577
H         10.68868       16.19163       30.59725
H          9.24110       17.12997       30.18946
H         10.01860       15.96926       25.93375
H         11.45350       15.17938       26.55519
H          9.08959       15.43990       30.70644
C         17.27400       22.17926       30.93604
C         18.55549       21.33284       30.82384
C         16.94624       22.54545       32.38273
H         16.42466       21.62910       30.51167
H         17.37534       23.10087       30.34800
C         15.62028       23.28751       32.47172
H         17.74244       23.17520       32.79526
H         16.89154       21.63969       32.99710
H         15.63357       24.19554       31.86012
H         14.79616       22.65474       32.12642
H         18.41042       20.40905       31.39660
H         19.37590       21.86708       31.31734