859
	Energy:    5779.2501642
Si        14.67013       14.67470       20.01005
Si        14.66043       14.63835       25.35644
Si        14.69699       19.99734       14.71210
Si        14.77571       19.98810       20.01871
Si        14.70387       19.99750       25.28630
Si        14.63486       25.29180       14.68242
Si        14.67303       25.30717       19.97537
Si        20.00321       14.67822       14.70684
Si        19.98702       14.77454       20.01011
Si        19.96661       14.67952       25.28565
Si        20.01005       19.98063       14.79160
Si        19.99866       19.99180       20.00760
Si        20.00841       19.99543       25.20798
Si        19.96681       25.28757       14.69610
Si        19.99573       25.21130       20.00465
Si        20.02009       25.31165       25.30209
Si        25.29832       14.62698       14.73109
Si        25.26720       14.67665       19.99125
Si        25.32578       19.95352       14.68422
Si        25.22719       19.98196       20.00425
Si        25.30331       20.01580       25.32027
Si        25.29779       25.27315       20.00515
Si        25.38343       25.37775       25.38355
Si        14.68907       11.98558       22.70953
Si        14.68031       17.35861       17.37706
Si        14.72363       17.30418       22.69108
Si        14.73400       17.33512       27.95408
Si        14.67882       22.63188       12.00268
Si        14.71070       22.66570       17.32400
Si        14.66728       22.64761       22.64973
Si        14.68901       27.96089       17.26933
Si        20.05455       12.04645       17.42091
Si        19.89454       12.05751       22.56692
Si        20.10865       17.38504       12.06994
Si        19.99795       17.34413       17.36306
Si        19.99365       17.34160       22.64981
Si        19.92396       17.40041       27.94015
Si        19.92356       22.56533       12.07016
Si        19.99503       22.63168       17.35757
Si        20.00087       22.64983       22.64847
Si        20.08864       22.58040       27.90958
Si        19.92911       27.93233       17.41275
Si        20.08135       27.95125       22.58205
Si        25.26676       11.96936       17.30393
Si        25.28898       17.23515       12.08367
Si        25.27220       17.28999       17.32793
Si        25.32476       17.33174       22.65386
Si        25.32548       22.61268       17.35281
Si        25.28333       22.68700       22.69757
Si        25.32339       22.70385       28.01785
Si        25.28271       27.89561       22.67340
Si        12.05204       17.40323       20.09022
Si        12.03503       17.25622       25.35327
Si        12.00072       22.65654       14.67277
Si        12.06437       22.53518       19.94229
Si        17.40259       12.07165       20.07549
Si        17.27910       11.97522       25.30677
Si        17.35654       17.34277       14.67792
Si        17.34450       17.34080       20.01385
Si        17.31699       17.30758       25.25921
Si        17.30424       22.66488       14.73280
Si        17.34255       22.64824       20.00736
Si        17.36998       22.64905       25.30350
Si        17.28234       27.91674       14.67822
Si        17.43009       27.92603       19.89050
Si        22.66610       12.02796       14.74800
Si        22.55451       12.02672       19.93592
Si        22.68082       17.29199       14.74824
Si        22.64292       17.34116       20.00912
Si        22.64160       17.33678       25.31691
Si        22.64166       22.61837       14.68577
Si        22.65099       22.62875       20.00602
Si        22.70478       22.69401       25.28108
Si        22.57878       27.93593       20.07082
Si        22.71224       27.94059       25.27195
Si        27.96394       17.19411       14.68866
Si        27.94509       17.37140       19.92605
Si        27.95583       22.57507       20.06549
Si        28.02221       22.69282       25.30284
Si        12.03842       14.65094       22.72974
Si        12.04561       20.05087       17.44528
Si        12.03669       19.89584       22.61144
Si        11.96492       25.27916       17.29223
Si        17.35413       14.68471       17.36279
Si        17.29375       14.71133       22.68896
Si        17.26925       14.69091       27.95878
Si        17.44736       20.05117       12.09795
Si        17.34839       19.99331       17.36402
Si        17.35139       19.99370       22.64803
Si        17.42329       19.91599       27.91123
Si        17.23692       25.27346       12.01758
Si        17.31265       25.24726       17.32365
Si        17.33435       25.35504       22.65005
Si        22.72308       14.64178       12.05158
Si        22.66113       14.71467       17.34573
Si        22.63610       14.65619       22.65115
Si        22.60726       19.88720       12.05599
Si        22.65498       19.97691       17.35668
Si        22.65658       19.99804       22.65493
Si        22.58856       20.05467       27.94030
Si        22.64007       25.28921       17.36595
Si        22.68109       25.24758       22.67705
Si        22.73125       25.31586       27.99851
Si        27.96759       14.63830       17.34301
Si        27.95447       19.87948       17.40873
Si        27.93162       20.08020       22.58796
Si        27.97323       25.32101       22.71098
Si        13.31284       16.05636       18.71327
Si        13.43467       15.96334       24.02877
Si        13.38970       21.31565       13.39426
Si        13.53936       21.30548       18.68284
Si        13.33161       21.24903       23.92163
Si        13.36240       26.59860       18.60708
Si        19.04180       10.84505       19.06643
Si        18.28168       10.81893       23.58786
Si        18.75700       16.06854       13.35314
Si        18.66606       16.05068       18.67857
Si        18.65850       16.01974       23.95324
Si        18.27953       16.39418       29.15331
Si        18.67553       21.31117       13.56832
Si        18.67221       21.31523       18.69098
Si        18.67202       21.32704       23.93764
Si        19.06834       20.93628       29.09680
Si        18.63916       26.59760       13.35379
Si        18.66969       26.43552       18.66598
Si        18.73078       26.70904       23.96491
Si        23.52873       10.77056       18.30257
Si        24.00837       15.93707       13.45998
Si        23.95182       16.02325       18.68341
Si        23.96982       16.00289       23.97632
Si        23.95122       21.26770       13.31908
Si        23.94830       21.30860       18.67542
Si        23.97390       21.32831       23.97656
Si        23.60239       21.68555       29.15664
Si        23.92773       26.66295       18.72212
Si        24.02060       26.52690       24.00947
Si        29.19655       16.37167       18.26900
Si        29.16950       20.90072       19.06820
Si        29.19597       21.73025       23.55319
Si        10.86019       16.35611       21.74160
Si        10.82531       21.67996       16.40425
Si        10.81158       20.88853       20.94843
Si        16.39720       10.82515       21.70484
Si        16.03463       16.04525       16.05003
Si        16.01520       16.01915       21.32977
Si        15.97890       15.97707       26.57364
Si        16.44263       21.66436       10.86226
Si        16.02821       21.31588       16.04588
Si        16.04933       21.32878       21.34106
Si        16.09727       21.25657       26.62984
Si        15.97796       26.52943       15.98185
Si        16.03241       26.70975       21.23607
Si        21.70042       10.80135       16.42473
Si        20.87635       10.81376       20.91488
Si        21.75396       16.36297       10.82654
Si        21.31832       16.01824       16.05259
Si        21.32457       16.03941       21.33765
Si        21.23054       16.06146       26.63204
Si        20.95303       20.92169       10.86424
Si        21.33475       21.30990       16.06649
Si        21.32118       21.31348       21.32939
Si        21.34927       21.31711       26.44239
Si        21.24478       26.60902       16.10095
Si        21.32699       26.44417       21.33340
Si        21.41865       26.57275       26.59239
Si        26.58394       15.92558       16.01490
Si        26.67401       16.02639       21.27961
Si        26.66733       21.22422       16.07977
Si        26.45494       21.32888       21.32781
Si        26.65596       21.32441       26.62082
Si        26.60273       26.57368       21.34593
Si        10.79980       19.07248       19.11032
Si        10.82821       18.22118       23.63814
Si        10.84172       23.54248       18.31741
Si        16.08509       13.35811       18.74359
Si        15.95800       13.38097       24.03047
Si        16.05858       18.70830       13.34138
Si        16.05166       18.66388       18.68837
Si        16.03364       18.66368       23.95965
Si        16.43150       18.27580       29.17248
Si        15.93753       23.98440       13.40597
Si        16.02108       23.95583       18.67413
Si        15.98870       24.00160       23.99902
Si        16.42037       29.15867       18.22595
Si        21.34453       13.36080       13.41156
Si        21.30436       13.52711       18.68410
Si        21.25635       13.29550       23.92727
Si        21.34703       18.65485       13.55744
Si        21.32093       18.66780       18.68704
Si        21.33532       18.65824       23.94195
Si        20.92039       19.06884       29.15701
Si        21.23144       23.89905       13.37232
Si        21.32575       23.92637       18.68370
Si        21.33131       23.95781       23.96711
Si        21.71751       23.57997       29.14667
Si        20.90893       29.17009       19.07944
Si        21.75825       29.15902       23.59042
Si        26.56548       13.34708       18.67210
Si        26.65103       18.59393       13.36144
Si        26.46022       18.64063       18.67930
Si        26.62801       18.76495       23.91303
Si        26.65553       23.89765       18.73574
Si        26.60540       24.02238       24.05875
Si        13.37010       13.33217       21.33025
Si        13.34614       18.75193       16.11145
Si        13.53605       18.65502       21.34172
Si        13.41135       18.68639       26.62247
Si        13.36655       23.98936       15.97988
Si        13.33717       23.90187       21.23105
Si        18.70644       13.32218       16.06484
Si        18.65363       13.54356       21.33384
Si        18.62920       13.37899       26.59389
Si        19.08165       19.03474       10.87245
Si        18.66762       18.66164       16.06382
Si        18.67445       18.66918       21.32655
Si        18.67783       18.65835       26.43750
Si        18.27662       23.57366       10.84888
Si        18.65750       23.94444       16.03976
Si        18.65453       23.95449       21.34399
Si        18.75849       23.92411       26.64295
Si        18.28983       29.11020       16.35222
Si        19.06048       29.15392       20.93116
Si        23.98582       13.38852       16.03486
Si        23.89723       13.31168       21.25949
Si        23.62423       18.22506       10.83317
Si        23.97473       18.64892       16.03780
Si        23.94861       18.65464       21.33543
Si        23.93435       18.70153       26.67721
Si        23.96955       23.94713       16.03746
Si        23.96447       23.94639       21.33131
Si        24.06377       24.02403       26.61667
Si        23.62739       29.13300       21.70773
Si        29.18133       18.22353       16.39308
Si        29.11338       19.03748       20.95067
Si        29.16118       23.59732       21.71178
C         18.73247       15.90046       30.83286
C         18.88990       16.66521       31.92362
C         19.31578       16.06949       33.24120
H         18.72795       17.74068       31.88951
C         19.29347       17.07494       34.38255
H         18.65757       15.23083       33.49865
H         20.33501       15.67679       33.14337
H         18.28392       17.46396       34.54943
H         19.95957       17.91988       34.17883
H         19.62971       16.59760       35.30932
H         18.91250       14.83135       30.93546
C         10.78167       26.32467       16.36331
C          9.49564       26.03567       16.09533
C          8.55485       26.96984       15.38296
H          9.05558       25.08968       16.40522
C          7.25550       26.27454       14.98982
H          8.31285       27.80776       16.04650
H          9.03098       27.37252       14.48221
H          6.73934       25.87259       15.86930
H          7.44070       25.44585       14.29866
H          6.57826       26.98127       14.49960
H         11.17097       27.29084       16.04886
C          9.17273       21.46083       21.45421
C          8.18057       20.74025       22.00014
C          6.87292       21.35513       22.42421
H          8.28314       19.66772       22.14989
C          5.95725       20.35203       23.11292
H          7.06485       22.18447       23.11555
H          6.35687       21.75891       21.54575
H          6.43067       19.92733       24.00455
H          5.69651       19.52854       22.44008
H          5.02758       20.84010       23.42362
H          9.00223       22.52692       21.31354
C         18.48449        9.19545       18.60099
C         19.05133        8.00773       18.85930
C         18.42002        6.71871       18.40056
H         19.98038        7.93301       19.42018
C         19.35123        5.52344       18.53041
H         17.52058        6.52844       18.99708
H         18.11144        6.80769       17.35276
H         19.64430        5.36287       19.57336
H         20.25760        5.66055       17.93308
H         18.85006        4.61532       18.17894
H         17.55028        9.19490       18.04119
C         29.19945       23.59318       26.37378
C         30.28971       23.06024       26.95224
C         31.20628       23.83448       27.86102
H         30.54253       22.01141       26.79749
C         32.57590       23.18027       27.99674
H         31.33646       24.85757       27.48953
H         30.74913       23.89235       28.85534
H         33.09070       23.12459       27.03202
H         32.49064       22.16388       28.39744
H         33.20383       23.75711       28.68406
H         28.96567       24.63749       26.56315
C         17.68577       27.86199       24.92835
C         17.86550       28.27907       26.19071
C         16.95245       29.24803       26.89276
H         18.69760       27.92901       26.78671
C         17.52751       29.69135       28.23445
H         16.79146       30.13288       26.26661
H         15.98274       28.76917       27.06733
H         18.49050       30.19811       28.10729
H         17.68166       28.83500       28.90090
H         16.84268       30.38487       28.73267
H         16.82605       28.25435       24.38989
C         21.26888        9.12723       15.88126
C         20.16943        8.80086       15.18198
C         19.86093        7.40611       14.71285
H         19.44564        9.56270       14.90658
C         18.43088        7.28944       14.19791
H         20.54813        7.13697       13.90310
H         20.00504        6.69231       15.53121
H         18.26875        7.94686       13.33623
H         17.70335        7.56041       14.97038
H         18.22337        6.26271       13.88017
H         21.99843        8.35397       16.10614
C         10.84119       23.58667       13.61223
C         10.24765       23.14660       12.48942
C          9.22757       23.96230       11.73899
H         10.46214       22.15530       12.09260
C          8.84959       23.34387       10.39932
H          8.31962       24.03728       12.34844
H          9.60580       24.97709       11.56978
H          8.45522       22.32996       10.52646
H          9.71012       23.28944        9.72714
H          8.07633       23.94573        9.91026
H         10.58043       24.57800       13.97131
C         27.75209       19.66325       12.35827
C         27.78976       19.78303       11.02136
C         28.72620       20.72419       10.31005
H         27.13056       19.19973       10.38479
C         28.31129       20.97012        8.86499
H         28.75896       21.68678       10.83368
H         29.73602       20.29915       10.31721
H         27.29288       21.36726        8.79986
H         28.35514       20.04342        8.28424
H         28.98830       21.68910        8.39220
H         28.44276       20.26529       12.94528
C         23.61911       26.32190       29.23314
C         23.63207       27.65791       29.36873
C         24.34658       28.34572       30.50267
H         23.09948       28.30417       28.67580
C         24.15360       29.85653       30.47865
H         23.96446       27.96353       31.45691
H         25.41822       28.12312       30.45429
H         23.09310       30.12367       30.53984
H         24.56053       30.29371       29.56183
H         24.66733       30.31768       31.32851
H         24.16155       25.73977       29.97340
C         11.01289       13.55765       23.77225
C          9.85024       12.97762       23.43338
C          9.10675       12.06164       24.36862
H          9.40865       13.14281       22.45177
C          7.89136       11.42095       23.71232
H          9.77762       11.26717       24.71424
H          8.77596       12.62682       25.24742
H          8.17290       10.85023       22.82101
H          7.15835       12.17904       23.41621
H          7.40201       10.73518       24.41199
H         11.41988       13.34848       24.75985
C         27.71784       20.34709       27.75294
C         28.68638       19.48112       27.41625
C         29.51649       18.77017       28.45157
H         28.92424       19.27512       26.37588
C         30.43480       17.72825       27.83122
H         30.12870       19.50221       28.99066
H         28.86046       18.27490       29.17718
H         31.12016       18.18261       27.10749
H         29.85469       16.95680       27.31742
H         31.03551       17.24066       28.60561
H         27.54142       20.53504       28.81113
C         10.97854       16.22000       26.43394
C         10.89106       16.27614       27.77362
C         10.02686       15.36559       28.60278
H         11.46459       17.00096       28.34499
C         10.21720       15.62120       30.09482
H          8.97332       15.52415       28.34842
H         10.28018       14.32093       28.38957
H          9.93526       16.64662       30.35921
H         11.26046       15.47176       30.39377
H          9.59563       14.93841       30.68247
H         10.36562       15.48984       25.90958
C         23.68168       13.52904       10.95825
C         24.58445       12.61036       11.33917
C         25.28723       11.66638       10.40204
H         24.84545       12.48058       12.38462
C         25.67934       10.37012       11.10503
H         24.64614       11.42659        9.54602
H         26.19417       12.14903       10.02286
H         24.80198        9.84654       11.49991
H         26.36130       10.56532       11.94088
H         26.19095        9.69877       10.40784
H         23.45239       13.62784        9.89863
C         29.10205       26.33714       23.72775
C         29.30099       27.66390       23.67177
C         30.25268       28.38032       24.59376
H         28.77373       28.28582       22.95242
C         30.03243       29.88746       24.58950
H         30.13078       28.00880       25.61775
H         31.28305       28.17467       24.28357
H         28.99757       30.14304       24.83592
H         30.26055       30.31350       23.60645
H         30.68628       30.36919       25.32388
H         29.68423       25.77032       24.45127
C         24.06102       18.68947        9.13304
C         25.14030       18.28337        8.44240
C         25.46512       18.78445        7.05991
H         25.84950       17.58032        8.87742
C         26.66087       18.06443        6.44820
H         24.59898       18.65692        6.40096
H         25.69560       19.85495        7.11373
H         26.44672       17.00198        6.29358
H         27.54557       18.14092        7.08922
H         26.91226       18.50519        5.47782
H         23.37791       19.39202        8.65962
C         17.68037       12.18828       15.07252
C         16.74526       12.50364       14.16361
C         15.97902       11.45241       13.40510
H         16.50311       13.53672       13.92995
C         14.89539       12.05428       12.52179
H         16.67238       10.88555       12.77309
H         15.51352       10.75321       14.10975
H         15.32392       12.72881       11.77291
H         14.17246       12.62236       13.11425
H         14.35439       11.26232       11.99385
H         17.86315       11.13236       15.25485
C         26.39338       10.87964       16.36429
C         26.24005        9.57903       16.06678
C         27.32438        8.76162       15.41478
H         25.33623        9.03821       16.33419
C         26.92421        7.29973       15.25572
H         27.56339        9.17716       14.43001
H         28.23056        8.80547       16.03172
H         26.04467        7.19912       14.61110
H         26.69106        6.84269       16.22402
H         27.74239        6.72952       14.80368
H         27.32682       11.35052       16.06713
C         12.16881       15.00956       17.75311
C         12.06646       14.86999       16.42296
C         11.04159       13.98616       15.76245
H         12.71155       15.41273       15.73836
C         11.60854       13.26080       14.55111
H         10.64687       13.24740       16.46886
H         10.20208       14.61118       15.43846
H         12.43043       12.59602       14.83167
H         11.98963       13.96756       13.80751
H         10.83003       12.65813       14.07205
H         11.47995       14.43838       18.37106
C         12.26072       12.18982       20.41329
C         12.37312       11.77685       19.14199
C         11.40788       10.82678       18.48790
H         13.17208       12.13629       18.50241
C         11.98683       10.22837       17.21189
H         11.14571       10.01486       19.17550
H         10.48994       11.36962       18.23638
H         12.87579        9.62465       17.42162
H         12.27427       11.01203       16.50463
H         11.24654        9.59010       16.71953
H         11.43470       11.80863       21.01237
C         21.21292       15.90241        9.16186
C         21.88689       15.98080        8.00452
C         21.29343       15.51333        6.70056
H         22.90043       16.37210        7.96823
C         22.19716       15.79377        5.50762
H         21.11341       14.43318        6.75461
H         20.32886       16.00758        6.53449
H         23.16986       15.30378        5.62277
H         22.36687       16.86810        5.38143
H         21.73642       15.41417        4.58928
H         20.21022       15.47922        9.13303
C         15.06050       17.74986       12.14816
C         13.90804       17.10207       12.37930
C         13.14024       16.37662       11.30558
H         13.46435       17.07084       13.36952
C         11.64372       16.34742       11.59064
H         13.30258       16.85040       10.32997
H         13.50863       15.34693       11.24442
H         11.21776       17.35593       11.60211
H         11.43296       15.88168       12.55868
H         11.12418       15.76663       10.82126
H         15.46292       17.71999       11.13657
C         15.00934       25.06520       25.11893
C         13.77131       25.53882       24.90965
C         13.05521       26.45933       25.86037
H         13.22387       25.29881       24.00558
C         11.72968       26.94226       25.28115
H         12.86060       25.93502       26.80201
H         13.68364       27.33164       26.07436
H         11.05755       26.10123       25.07747
H         11.88029       27.48725       24.34314
H         11.22728       27.61316       25.98501
H         15.51336       25.34822       26.04223
C         30.81561       18.61611       21.40339
C         31.15911       17.83127       22.43913
C         32.58380       17.47451       22.76509
H         30.39631       17.40580       23.08908
C         32.67726       16.51189       23.94233
H         33.05420       17.00720       21.89228
H         33.14282       18.38453       23.00940
H         32.15505       15.57358       23.72825
H         32.23967       16.94861       24.84666
H         33.72351       16.27198       24.15667
H         31.59483       19.02725       20.76481
C         24.97829       22.23567       12.15831
C         24.96155       23.55842       11.93173
C         25.85682       24.23069       10.92426
H         24.29529       24.22144       12.47359
C         25.49959       25.70091       10.73650
H         26.89671       24.16165       11.26240
H         25.77835       23.72196        9.95635
H         25.57607       26.25082       11.68117
H         24.47821       25.81706       10.35796
H         26.18179       26.16877       10.01935
H         25.67966       21.63859       11.57978
C         19.62439       27.63513       12.20492
C         20.70312       28.37583       12.50154
C         21.44296       29.20306       11.48521
H         21.08847       28.42365       13.51395
C         22.80582       29.64860       12.00116
H         21.58340       28.63007       10.56145
H         20.84902       30.09215       11.24610
H         23.45304       28.79027       12.20953
H         22.70890       30.22938       12.92450
H         23.30447       30.28030       11.25908
H         19.25900       27.64672       11.17950
C          9.16635       18.54376       18.55282
C          7.97538       19.12766       18.75200
C          6.69019       18.56921       18.19980
H          7.89004       20.05318       19.31357
C          5.46558       19.02371       18.98207
H          6.58235       18.89363       17.15907
H          6.71718       17.47509       18.20467
H          5.36410       20.11400       18.95670
H          5.51783       18.70718       20.02845
H          4.55847       18.59375       18.54356
H          9.18746       17.63438       17.95405
C         25.00856       17.66781       27.73234
C         24.62936       16.76986       28.65523
C         25.61481       15.96957       29.46662
H         23.58065       16.58192       28.86805
C         25.03437       14.63990       29.93021
H         26.52315       15.77486       28.88380
H         25.90160       16.55389       30.34790
H         24.74422       14.01108       29.08215
H         24.15086       14.79391       30.55968
H         25.77419       14.09179       30.52318
H         26.07664       17.81886       27.58537
C         12.30296       19.72666       27.65073
C         12.65536       20.55426       28.64739
C         11.64757       21.34891       29.43543
H         13.69462       20.67688       28.94154
C         12.27324       22.55786       30.11769
H         10.83781       21.69193       28.78044
H         11.20763       20.70186       30.20265
H         12.72642       23.23892       29.39000
H         13.04867       22.24998       30.82765
H         11.51142       23.11250       30.67546
H         11.24448       19.62397       27.41630
C         30.89272       15.96282       18.75575
C         31.86573       15.44535       17.98927
C         33.19411       15.02963       18.56552
H         31.70098       15.25545       16.92937
C         34.13508       14.44786       17.51991
H         33.67811       15.89094       19.03977
H         33.02755       14.26948       19.33891
H         34.37265       15.18577       16.74691
H         33.69649       13.56989       17.03387
H         35.07396       14.13656       17.99035
H         31.10346       16.10610       19.81326
C         13.60172       10.84616       23.63571
C         12.97062        9.77751       23.11898
C         12.04572        8.89966       23.91725
H         13.08879        9.51970       22.06656
C         11.88192        7.51666       23.30044
H         12.41249        8.79278       24.94399
H         11.06010        9.37422       23.96290
H         12.84148        6.99644       23.21679
H         11.44047        7.58350       22.29963
H         11.21500        6.90484       23.91711
H         13.44493       11.09459       24.68316
C         13.66719       29.06545       16.23487
C         12.83434       30.02044       16.68200
C         12.03909       30.89696       15.74971
H         12.70786       30.19567       17.74985
C         11.24217       31.96450       16.48807
H         12.71658       31.39201       15.04391
H         11.34346       30.27694       15.17242
H         11.89932       32.62462       17.06411
H         10.52016       31.51366       17.17727
H         10.68583       32.58159       15.77453
H         13.76527       28.92490       15.15986
C         27.75314       14.89686       22.22678
C         28.36938       15.14570       23.39139
C         29.23554       14.13719       24.09556
H         28.27018       16.10407       23.88711
C         29.62758       14.61139       25.48825
H         28.70506       13.18229       24.18227
H         30.14634       13.97086       23.50985
H         28.74619       14.76425       26.12040
H         30.17537       15.55768       25.43709
H         30.27414       13.87537       25.97589
H         27.90838       13.91823       21.77483
C         24.05678       30.84402       21.27586
C         25.24323       31.43824       21.49215
C         25.56960       32.83104       21.02408
H         26.04622       30.91141       22.00554
C         27.00969       33.21809       21.34242
H         25.42522       32.89175       19.93898
H         24.89479       33.55097       21.49975
H         27.72032       32.51198       20.89857
H         27.18296       33.23954       22.42386
H         27.23223       34.21380       20.94531
H         23.27930       31.40202       20.75851
C         16.31411       26.33285       10.84590
C         15.06110       26.79623       10.97625