     263
 i =        1, E =     -1148.8198344450
 Si        14.5300586497       14.5307893360       14.5307571946
 Si        14.5182193588       14.5189597969       19.9928829890
 Si        14.5540802945       14.5545515512       25.4461694888
 Si        14.5183721044       19.9928389570       14.5188431626
 Si        14.5128329915       20.0002624247       20.0003751722
 Si        14.5183043417       20.0077541009       25.4816739418
 Si        14.5538414008       25.4459824983       14.5545425515
 Si        14.5183118447       25.4817430859       20.0077467360
 Si        14.5301272818       25.4699372231       25.4697851230
 Si        19.9923092482       14.5188270185       14.5189572196
 Si        19.9997318712       14.5134294389       20.0003109250
 Si        20.0071811730       14.5188490258       25.4816336353
 Si        19.9996751398       20.0003241848       14.5134197851
 Si        19.9997235257       20.0003420551       20.0002957245
 Si        19.9997430840       20.0004353716       25.4871730598
 Si        20.0070988399       25.4818147960       14.5189384586
 Si        19.9996234689       25.4872250537       20.0002542012
 Si        19.9922950965       25.4816897351       25.4817154146
 Si        25.4454780776       14.5545653545       14.5545247500
 Si        25.4812557244       14.5189874998       20.0077671076
 Si        25.4693382291       14.5307829734       25.4698355842
 Si        25.4810657904       20.0078063597       14.5187779034
 Si        25.4866216312       20.0003688411       20.0002583937
 Si        25.4810847359       19.9928944618       25.4818041585
 Si        25.4692713877       25.4698865057       14.5306870538
 Si        25.4811677767       25.4816873564       19.9928567181
 Si        25.4454916741       25.4461409283       25.4459516998
 Si        14.5338789306       11.4771562132       17.5725833376
 Si        14.5454312987       11.8066806737       22.7318706851
 Si        14.5326331976       17.5796387363       11.4718455851
 Si        14.4816280727       17.2356438288       17.2360873415
 Si        14.5301469362       17.2694250392       22.7312734686
 Si        14.5453636327       17.2689245127       28.1940019150
 Si        14.5451442825       22.7316161298       11.8066847538
 Si        14.5301050431       22.7312202480       17.2693876552
 Si        14.4816026449       22.7646329186       22.7648690497
 Si        14.5335754102       22.4261696358       28.5247926152
 Si        14.5452107757       28.1938637423       17.2688412484
 Si        14.5328924019       28.5274553652       22.4227291804
 Si        20.0047905618       11.8000710329       17.2608317928
 Si        19.9946872259       11.8000877421       22.7398077998
 Si        20.0044719134       17.2606276223       11.8001520367
 Si        19.9854004158       17.2559189057       17.2557164323
 Si        20.0140626360       17.2559496688       22.7449628949
 Si        19.9949353169       17.2607812305       28.2004031865
 Si        19.9949025768       22.7399803050       11.8001314675
 Si        20.0139557008       22.7446683646       17.2557336011
 Si        19.9854200467       22.7448928572       22.7447329178
 Si        20.0046428699       22.7400095223       28.2005290207
 Si        19.9946889885       28.2005615764       17.2607073554
 Si        20.0045759191       28.2004798022       22.7397940752
 Si        25.4540929957       11.8066792244       17.2687941057
 Si        25.4656489404       11.4771508935       22.4280312350
 Si        25.4542626648       17.2689971253       11.8066361535
 Si        25.4692918605       17.2694188319       17.2693321563
 Si        25.5177754991       17.2357440406       22.7645306510
 Si        25.4668745260       17.5796248164       28.5287246902
 Si        25.4668430051       22.4211134564       11.4720876845
 Si        25.5177596410       22.7649353869       17.2359965578
 Si        25.4692996881       22.7312552612       22.7312420764
 Si        25.4542461802       22.7318247017       28.1938554217
 Si        25.4656384754       28.5238136689       17.5731026361
 Si        25.4540877610       28.1940299821       22.7316803303
 Si        11.4764555464       17.5728141495       14.5344141129
 Si        11.7994341749       17.2606966599       20.0053542175
 Si        11.8061385452       17.2688710903       25.4547922902
 Si        11.8060210720       22.7316361306       14.5459115447
 Si        11.7995635085       22.7397838721       19.9954318898
 Si        11.4725690641       22.4226071281       25.4672319806
 Si        17.5793161914       11.4718415423       14.5330620084
 Si        17.2600614580       11.8001815591       20.0050729440
 Si        17.2684308018       11.8067020230       25.4548888735
 Si        17.2350979576       17.2361084500       14.4822645180
 Si        17.2553438795       17.2557625838       19.9860406272
 Si        17.2688195284       17.2693706520       25.4698827278
 Si        17.2687665392       22.7312725274       14.5307206526
 Si        17.2551179916       22.7447762857       20.0146363194
 Si        17.2353733461       22.7648149847       25.5183249869
 Si        17.2681961015       28.1938612321       14.5458032706
 Si        17.2600456189       28.2005383546       19.9953670740
 Si        17.5740235364       28.5248954588       25.4665325539
 Si        22.7310555499       11.8066598229       14.5457574900
 Si        22.7394097324       11.8001890454       19.9955339536
 Si        22.4202361264       11.4718637065       25.4674780097
 Si        22.7306163944       17.2693909468       14.5306998957
 Si        22.7440853539       17.2557193491       20.0146258447
 Si        22.7643409056       17.2361458706       25.5183130179
 Si        22.7642975113       22.7645803772       14.4822227947
 Si        22.7440342752       22.7449593660       19.9859410103
 Si        22.7306210125       22.7312591604       25.4698916192
 Si        22.4208129027       28.5284021387       14.5331531880
 Si        22.7392043884       28.2004430396       20.0050980822
 Si        22.7311285627       28.1940224558       25.4546597938
 Si        28.1933619606       17.2688287371       14.5459341476
 Si        28.1999755619       17.2608170565       19.9952926691
 Si        28.5229319935       17.5727979278       25.4662114234
 Si        28.5231903228       22.4277548660       14.5343606778
 Si        28.1999541270       22.7398608837       20.0052653481
 Si        28.1933844271       22.7318789524       25.4545948031
 Si        11.4712149491       14.5331198422       17.5797227396
 Si        11.8061678257       14.5458105259       22.7318080495
 Si        11.7996170335       20.0050774268       17.2607584225
 Si        11.7994782285       19.9953984314       22.7399985829
 Si        11.8060224259       25.4546908219       17.2688954089
 Si        11.4751497541       25.4664771999       22.4260637800
 Si        17.5720654583       14.5343403501       11.4771781344
 Si        17.2354840598       14.4822883110       17.2356959773
 Si        17.2687758273       14.5307530422       22.7312160228
 Si        17.2683932318       14.5459360917       28.1939974131
 Si        17.2601959174       20.0053189473       11.8000479046
 Si        17.2550657035       19.9859761948       17.2559554233
 Si        17.2552569674       20.0146840928       22.7448589392
 Si        17.2602259856       19.9954219343       28.2004117925
 Si        17.2681712373       25.4546093676       11.8066544371
 Si        17.2687946982       25.4699387754       17.2693737252
 Si        17.2352019349       25.5183738575       22.7646237613
 Si        17.5773478043       25.4672554444       28.5273790199
 Si        22.7312327251       14.5459562410       11.8066440281
 Si        22.7307014080       14.5307479265       17.2694278853
 Si        22.7639455911       14.4822796250       22.7649404142
 Si        22.4272119516       14.5343902820       28.5234912570
 Si        22.7391943433       19.9952719824       11.8000385832
 Si        22.7443104686       20.0146669014       17.2558848671
 Si        22.7442558330       19.9860697011       22.7446436617
 Si        22.7393409048       20.0053898101       28.2006053984
 Si        22.4268441222       25.4662836193       11.4767306787
 Si        22.7639128230       25.5183711048       17.2356600315
 Si        22.7306069120       25.4699114861       22.7312206643
 Si        22.7311739019       25.4548154026       28.1938848311
 Si        28.1933399117       14.5457764818       17.2689411801
 Si        28.5282491780       14.5331904239       22.4207859616
 Si        28.1998785172       19.9955553100       17.2605985807
 Si        28.1998799781       20.0051266969       22.7399642321
 Si        28.5278390941       25.4675409767       17.5794453912
 Si        28.1933373223       25.4549070586       22.7315719761
 Si        13.1290056796       15.8731354436       18.6327519491
 Si        13.1619324989       15.9079999777       24.0926660476
 Si        13.1763183607       21.4002332156       13.1771481406
 Si        13.1486053626       21.3708449007       18.6297792827
 Si        13.1292742594       21.3679144403       24.1273336934
 Si        13.1764062333       26.8234872105       18.6002852150
 Si        18.5278505099       10.4674404705       18.5285363530
 Si        18.7487616391       10.4547900665       24.2244848069
 Si        18.6321657305       15.8736880206       13.1304994545
 Si        18.6157037743       15.8639923205       18.6159684400
 Si        18.6415604586       15.8918250900       24.1087821962
 Si        18.7500496457       15.7752035941       29.5455526194
 Si        18.6291780551       21.3709770198       13.1491043030
 Si        18.6295516610       21.3702856325       18.6302323378
 Si        18.6156062756       21.3845790285       24.1366854140
 Si        18.5278729007       21.4721735538       29.5331790282
 Si        18.5995463053       26.8234335934       13.1769624780
 Si        18.6290852931       26.8515988167       18.6296752374
 Si        18.6322093758       26.8703895212       24.1270040047
 Si        24.2253833586       10.4551421055       18.7509123879
 Si        24.0921133955       15.9080738766       13.1624199126
 Si        24.1082655675       15.8918591955       18.6421173035
 Si        24.1133169768       15.8867925851       24.1138956369
 Si        24.1267688643       21.3678712773       13.1296198274
 Si        24.1361292223       21.3847022415       18.6162430859
 Si        24.1082049706       21.3585638825       24.1088417125
 Si        24.2243430633       21.2510105685       29.5457603368
 Si        24.1262921316       26.8701696133       18.6327679834
 Si        24.0919788649       26.8383181748       24.0925232407
 Si        29.5452636253       15.7761413120       18.7492932467
 Si        29.5325998096       21.4721441242       18.5283933406
 Si        29.5449059749       21.2498072458       24.2258384928
 Si        10.4542585690       15.7756804106       21.2510248919
 Si        10.4544764111       21.2500001026       15.7751673132
 Si        10.4668452756       21.4721301675       21.4721646862
 Si        15.7741232650       10.4551432939       21.2497029823
 Si        15.8861117619       15.8867232858       15.8867675273
 Si        15.8911812512       15.8918457107       21.3584634999
 Si        15.9074404999       15.9080360567       26.8382598569
 Si        15.7754372504       21.2512159045       10.4547839100
 Si        15.8911968171       21.3584907418       15.8917713379
 Si        15.8633335356       21.3844294299       21.3845417446
 Si        15.8730471066       21.3678388964       26.8703441910
 Si        15.9073133101       26.8380974984       15.9079738598
 Si        15.8726750442       26.8707527092       21.3678761118
 Si        21.2507603747       10.4547809705       15.7761549157
 Si        21.4716400321       10.4674550002       21.4721150143
 Si        21.2491003153       15.7747046877       10.4551282280
 Si        21.3578893500       15.8917825236       15.8918453718
 Si        21.3837458399       15.8639437202       21.3846612813
 Si        21.3672252713       15.8737357696       26.8700771362
 Si        21.4714967700       21.4721659902       10.4674012362
 Si        21.3839703889       21.3843763568       15.8639390901
 Si        21.3697989719       21.3704870162       21.3703048132
 Si        21.3702790907       21.3709883020       26.8515594256
 Si        21.3672399966       26.8709553863       15.8731263924
 Si        21.3702134860       26.8514553263       21.3707634593
 Si        21.3997590111       26.8236461475       26.8234812979
 Si        26.8375844314       15.9079378796       15.9080601197
 Si        26.8704764530       15.8732431020       21.3678508382
 Si        26.8695626229       21.3679003660       15.8736286534
 Si        26.8509207267       21.3708416248       21.3709289378
 Si        26.8230630384       21.4004628848       26.8234144240
 Si        26.8228795136       26.8237052852       21.4001959926
 Si        10.4668447408       18.5284564491       18.5285131684
 Si        10.4543350879       18.7500081810       24.2252610089
 Si        10.4543968574       24.2250771847       18.7501996044
 Si        15.8731105026       13.1304954206       18.6327651196
 Si        15.9075529630       13.1624235784       24.0927686361
 Si        15.8725860639       18.6327253094       13.1296027512
 Si        15.8633201780       18.6159273056       18.6163533114
 Si        15.8912004200       18.6421921480       24.1088039466
 Si        15.7748924940       18.7502308701       29.5456050464
 Si        15.9072669426       24.0924766239       13.1624276332
 Si        15.8912021306       24.1088085980       18.6421468202
 Si        15.8861221921       24.1139301588       24.1138922859
 Si        15.7747411890       29.5457197803       18.7499647705
 Si        21.3997706614       13.1771519264       13.1769804431
 Si        21.3703702819       13.1490971116       18.6298688657
 Si        21.3672988271       13.1296404459       24.1274632797
 Si        21.3701922179       18.6296522551       13.1490833666
 Si        21.3697509537       18.6303019317       18.6302290654
 Si        21.3840977146       18.6163346259       24.1366951886
 Si        21.4715476865       18.5284970980       29.5331738479
 Si        21.3672557691       24.1269689193       13.1303989797
 Si        21.3836828678       24.1366705343       18.6159360625
 Si        21.3578504609       24.1088728765       24.1087983431
 Si        21.2500408190       24.2253253181       29.5456794102
 Si        21.4715708398       29.5331892424       18.5284419536
 Si        21.2497943876       29.5456412471       24.2250912025
 Si        26.8229144366       13.1769681809       18.6002704746
 Si        26.8230767646       18.6003080514       13.1771342021
 Si        26.8509484499       18.6298854795       18.6296196317
 Si        26.8695459204       18.6327981647       24.1269460086
 Si        26.8703710533       24.1274768615       18.6327599515
 Si        26.8376079952       24.0927930356       24.0924589951
 Si        13.1766404499       13.1770005621       21.4004470686
 Si        13.1299128785       18.6327952259       15.8737376265
 Si        13.1484324417       18.6297233460       21.3709375157
 Si        13.1765487683       18.6002711980       26.8235917028
 Si        13.1617590158       24.0925545506       15.9080368610
 Si        13.1296377134       24.1270111527       21.3678011070
 Si        18.6321652121       13.1295982551       15.8732225847
 Si        18.6290763627       13.1491119113       21.3708110949
 Si        18.5998263160       13.1771580020       26.8237082778
 Si        18.5278739322       18.5284262014       10.4674263508
 Si        18.6153058869       18.6163194872       15.8639297888
 Si        18.6296490563       18.6302806529       21.3704365183
 Si        18.6292358635       18.6297944334       26.8514400659
 Si        18.7501587541       24.2258170627       10.4550898198
 Si        18.6415050808       24.1088686470       15.8918097233
 Si        18.6154060359       24.1366815706       21.3844007215
 Si        18.6321101743       24.1273928994       26.8707401107
 Si        18.7490714450       29.5457636028       15.7755723730
 Si        18.5279094854       29.5331808546       21.4721187108
 Si        24.0919618944       13.1624088124       15.9078935004
 Si        24.1263851242       13.1305405387       21.3678596862
 Si        24.2239009515       18.7494098580       10.4547728811
 Si        24.1081936807       18.6421727909       15.8917606713
 Si        24.1360937043       18.6160013377       21.3842950026
 Si        24.1269009018       18.6327841151       26.8710223884
 Si        24.1132650164       24.1139247115       15.8866989002
 Si        24.1082386429       24.1088386892       21.3584733848
 Si        24.0920739327       24.0927051416       26.8380844022
 Si        24.2248509012       29.5455654275       21.2500227336
 Si        29.5449159103       18.7508692207       15.7747067649
 Si        29.5326164487       18.5285625686       21.4721592775
 Si        29.5452362416       24.2245806288       21.2511617906
 